ITEM: TIMESTEP
0
ITEM: NUMBER OF ATOMS
498
ITEM: BOX BOUNDS pp pp pp
-1.5000000000000000e+02 1.5000000000000000e+02
-1.5000000000000000e+02 1.5000000000000000e+02
-1.5000000000000000e+02 1.5000000000000000e+02
ITEM: ATOMS mass type x y z 
196.97 1 -4.078 -4.078 -8.157 
196.97 1 0 -4.078 -8.157 
196.97 1 4.078 -4.078 -8.157 
196.97 1 26.922 -4.078 -8.157 
196.97 1 31 -4.078 -8.157 
196.97 1 35.078 -4.078 -8.157 
196.97 1 -2.039 -2.039 -8.157 
196.97 1 2.039 -2.039 -8.157 
196.97 1 28.961 -2.039 -8.157 
196.97 1 33.039 -2.039 -8.157 
196.97 1 -4.078 0 -8.157 
196.97 1 -2.039 2.039 -8.157 
196.97 1 0 0 -8.157 
196.97 1 2.039 2.039 -8.157 
196.97 1 4.078 0 -8.157 
196.97 1 26.922 0 -8.157 
196.97 1 28.961 2.039 -8.157 
196.97 1 31 0 -8.157 
196.97 1 33.039 2.039 -8.157 
196.97 1 35.078 0 -8.157 
196.97 1 -4.078 4.078 -8.157 
196.97 1 0 4.078 -8.157 
196.97 1 4.078 4.078 -8.157 
196.97 1 26.922 4.078 -8.157 
196.97 1 31 4.078 -8.157 
196.97 1 35.078 4.078 -8.157 
196.97 1 -4.078 -8.157 -4.078 
196.97 1 0 -8.157 -4.078 
196.97 1 4.078 -8.157 -4.078 
196.97 1 26.922 -8.157 -4.078 
196.97 1 31 -8.157 -4.078 
196.97 1 35.078 -8.157 -4.078 
196.97 1 -8.157 -4.078 -4.078 
196.97 1 -4.078 -6.117 -6.117 
196.97 1 -6.117 -4.078 -6.117 
196.97 1 -6.117 -6.117 -4.078 
196.97 1 -4.078 -4.078 -4.078 
196.97 1 -2.039 -4.078 -6.117 
196.97 1 -2.039 -6.117 -4.078 
196.97 1 0 -6.117 -6.117 
196.97 1 2.039 -4.078 -6.117 
196.97 1 2.039 -6.117 -4.078 
196.97 1 0 -4.078 -4.078 
196.97 1 4.078 -6.117 -6.117 
196.97 1 6.117 -4.078 -6.117 
196.97 1 6.117 -6.117 -4.078 
196.97 1 4.078 -4.078 -4.078 
196.97 1 8.157 -4.078 -4.078 
196.97 1 22.843 -4.078 -4.078 
196.97 1 24.883 -4.078 -6.117 
196.97 1 24.883 -6.117 -4.078 
196.97 1 26.922 -6.117 -6.117 
196.97 1 28.961 -4.078 -6.117 
196.97 1 28.961 -6.117 -4.078 
196.97 1 26.922 -4.078 -4.078 
196.97 1 31 -6.117 -6.117 
196.97 1 33.039 -4.078 -6.117 
196.97 1 33.039 -6.117 -4.078 
196.97 1 31 -4.078 -4.078 
196.97 1 35.078 -6.117 -6.117 
196.97 1 35.078 -4.078 -4.078 
196.97 1 37.117 -4.078 -6.117 
196.97 1 37.117 -6.117 -4.078 
196.97 1 39.157 -4.078 -4.078 
196.97 1 -4.078 -2.039 -6.117 
196.97 1 -6.117 -2.039 -4.078 
196.97 1 -2.039 -2.039 -4.078 
196.97 1 0 -2.039 -6.117 
196.97 1 2.039 -2.039 -4.078 
196.97 1 4.078 -2.039 -6.117 
196.97 1 6.117 -2.039 -4.078 
196.97 1 24.883 -2.039 -4.078 
196.97 1 26.922 -2.039 -6.117 
196.97 1 28.961 -2.039 -4.078 
196.97 1 31 -2.039 -6.117 
196.97 1 33.039 -2.039 -4.078 
196.97 1 35.078 -2.039 -6.117 
196.97 1 37.117 -2.039 -4.078 
196.97 1 -8.157 0 -4.078 
196.97 1 -6.117 0 -6.117 
196.97 1 -4.078 2.039 -6.117 
196.97 1 -6.117 2.039 -4.078 
196.97 1 -4.078 0 -4.078 
196.97 1 -2.039 0 -6.117 
196.97 1 -2.039 2.039 -4.078 
196.97 1 0 2.039 -6.117 
196.97 1 2.039 0 -6.117 
196.97 1 0 0 -4.078 
196.97 1 2.039 2.039 -4.078 
196.97 1 4.078 2.039 -6.117 
196.97 1 6.117 0 -6.117 
196.97 1 4.078 0 -4.078 
196.97 1 6.117 2.039 -4.078 
196.97 1 8.157 0 -4.078 
196.97 1 22.843 0 -4.078 
196.97 1 24.883 0 -6.117 
196.97 1 24.883 2.039 -4.078 
196.97 1 26.922 2.039 -6.117 
196.97 1 28.961 0 -6.117 
196.97 1 26.922 0 -4.078 
196.97 1 28.961 2.039 -4.078 
196.97 1 31 2.039 -6.117 
196.97 1 33.039 0 -6.117 
196.97 1 31 0 -4.078 
196.97 1 33.039 2.039 -4.078 
196.97 1 35.078 2.039 -6.117 
196.97 1 35.078 0 -4.078 
196.97 1 37.117 0 -6.117 
196.97 1 37.117 2.039 -4.078 
196.97 1 39.157 0 -4.078 
196.97 1 -8.157 4.078 -4.078 
196.97 1 -6.117 4.078 -6.117 
196.97 1 -4.078 6.117 -6.117 
196.97 1 -6.117 6.117 -4.078 
196.97 1 -4.078 4.078 -4.078 
196.97 1 -2.039 4.078 -6.117 
196.97 1 -2.039 6.117 -4.078 
196.97 1 0 6.117 -6.117 
196.97 1 2.039 4.078 -6.117 
196.97 1 0 4.078 -4.078 
196.97 1 2.039 6.117 -4.078 
196.97 1 4.078 6.117 -6.117 
196.97 1 6.117 4.078 -6.117 
196.97 1 4.078 4.078 -4.078 
196.97 1 6.117 6.117 -4.078 
196.97 1 8.157 4.078 -4.078 
196.97 1 22.843 4.078 -4.078 
196.97 1 24.883 4.078 -6.117 
196.97 1 24.883 6.117 -4.078 
196.97 1 26.922 6.117 -6.117 
196.97 1 28.961 4.078 -6.117 
196.97 1 26.922 4.078 -4.078 
196.97 1 28.961 6.117 -4.078 
196.97 1 31 6.117 -6.117 
196.97 1 33.039 4.078 -6.117 
196.97 1 31 4.078 -4.078 
196.97 1 33.039 6.117 -4.078 
196.97 1 35.078 6.117 -6.117 
196.97 1 35.078 4.078 -4.078 
196.97 1 37.117 4.078 -6.117 
196.97 1 37.117 6.117 -4.078 
196.97 1 39.157 4.078 -4.078 
196.97 1 -4.078 8.157 -4.078 
196.97 1 0 8.157 -4.078 
196.97 1 4.078 8.157 -4.078 
196.97 1 26.922 8.157 -4.078 
196.97 1 31 8.157 -4.078 
196.97 1 35.078 8.157 -4.078 
196.97 1 -2.039 -8.157 -2.039 
196.97 1 2.039 -8.157 -2.039 
196.97 1 28.961 -8.157 -2.039 
196.97 1 33.039 -8.157 -2.039 
196.97 1 -4.078 -6.117 -2.039 
196.97 1 -6.117 -4.078 -2.039 
196.97 1 -2.039 -4.078 -2.039 
196.97 1 0 -6.117 -2.039 
196.97 1 2.039 -4.078 -2.039 
196.97 1 4.078 -6.117 -2.039 
196.97 1 6.117 -4.078 -2.039 
196.97 1 24.883 -4.078 -2.039 
196.97 1 26.922 -6.117 -2.039 
196.97 1 28.961 -4.078 -2.039 
196.97 1 31 -6.117 -2.039 
196.97 1 33.039 -4.078 -2.039 
196.97 1 35.078 -6.117 -2.039 
196.97 1 37.117 -4.078 -2.039 
196.97 1 -8.157 -2.039 -2.039 
196.97 1 -4.078 -2.039 -2.039 
196.97 1 0 -2.039 -2.039 
196.97 1 4.078 -2.039 -2.039 
196.97 1 8.157 -2.039 -2.039 
196.97 1 22.843 -2.039 -2.039 
196.97 1 26.922 -2.039 -2.039 
196.97 1 31 -2.039 -2.039 
196.97 1 35.078 -2.039 -2.039 
196.97 1 39.157 -2.039 -2.039 
196.97 1 -8.157 2.039 -2.039 
196.97 1 -6.117 0 -2.039 
196.97 1 -4.078 2.039 -2.039 
196.97 1 -2.039 0 -2.039 
196.97 1 0 2.039 -2.039 
196.97 1 2.039 0 -2.039 
196.97 1 4.078 2.039 -2.039 
196.97 1 6.117 0 -2.039 
196.97 1 8.157 2.039 -2.039 
196.97 1 22.843 2.039 -2.039 
196.97 1 24.883 0 -2.039 
196.97 1 26.922 2.039 -2.039 
196.97 1 28.961 0 -2.039 
196.97 1 31 2.039 -2.039 
196.97 1 33.039 0 -2.039 
196.97 1 35.078 2.039 -2.039 
196.97 1 37.117 0 -2.039 
196.97 1 39.157 2.039 -2.039 
196.97 1 -6.117 4.078 -2.039 
196.97 1 -4.078 6.117 -2.039 
196.97 1 -2.039 4.078 -2.039 
196.97 1 0 6.117 -2.039 
196.97 1 2.039 4.078 -2.039 
196.97 1 4.078 6.117 -2.039 
196.97 1 6.117 4.078 -2.039 
196.97 1 24.883 4.078 -2.039 
196.97 1 26.922 6.117 -2.039 
196.97 1 28.961 4.078 -2.039 
196.97 1 31 6.117 -2.039 
196.97 1 33.039 4.078 -2.039 
196.97 1 35.078 6.117 -2.039 
196.97 1 37.117 4.078 -2.039 
196.97 1 -2.039 8.157 -2.039 
196.97 1 2.039 8.157 -2.039 
196.97 1 28.961 8.157 -2.039 
196.97 1 33.039 8.157 -2.039 
196.97 1 -4.078 -8.157 0 
196.97 1 -2.039 -8.157 2.039 
196.97 1 0 -8.157 0 
196.97 1 2.039 -8.157 2.039 
196.97 1 4.078 -8.157 0 
196.97 1 26.922 -8.157 0 
196.97 1 28.961 -8.157 2.039 
196.97 1 31 -8.157 0 
196.97 1 33.039 -8.157 2.039 
196.97 1 35.078 -8.157 0 
196.97 1 -8.157 -4.078 0 
196.97 1 -6.117 -6.117 0 
196.97 1 -4.078 -6.117 2.039 
196.97 1 -6.117 -4.078 2.039 
196.97 1 -4.078 -4.078 0 
196.97 1 -2.039 -6.117 0 
196.97 1 -2.039 -4.078 2.039 
196.97 1 0 -6.117 2.039 
196.97 1 2.039 -6.117 0 
196.97 1 0 -4.078 0 
196.97 1 2.039 -4.078 2.039 
196.97 1 4.078 -6.117 2.039 
196.97 1 6.117 -6.117 0 
196.97 1 4.078 -4.078 0 
196.97 1 6.117 -4.078 2.039 
196.97 1 8.157 -4.078 0 
196.97 1 22.843 -4.078 0 
196.97 1 24.883 -6.117 0 
196.97 1 24.883 -4.078 2.039 
196.97 1 26.922 -6.117 2.039 
196.97 1 28.961 -6.117 0 
196.97 1 26.922 -4.078 0 
196.97 1 28.961 -4.078 2.039 
196.97 1 31 -6.117 2.039 
196.97 1 33.039 -6.117 0 
196.97 1 31 -4.078 0 
196.97 1 33.039 -4.078 2.039 
196.97 1 35.078 -6.117 2.039 
196.97 1 35.078 -4.078 0 
196.97 1 37.117 -6.117 0 
196.97 1 37.117 -4.078 2.039 
196.97 1 39.157 -4.078 0 
196.97 1 -8.157 -2.039 2.039 
196.97 1 -6.117 -2.039 0 
196.97 1 -4.078 -2.039 2.039 
196.97 1 -2.039 -2.039 0 
196.97 1 0 -2.039 2.039 
196.97 1 2.039 -2.039 0 
196.97 1 4.078 -2.039 2.039 
196.97 1 6.117 -2.039 0 
196.97 1 8.157 -2.039 2.039 
196.97 1 22.843 -2.039 2.039 
196.97 1 24.883 -2.039 0 
196.97 1 26.922 -2.039 2.039 
196.97 1 28.961 -2.039 0 
196.97 1 31 -2.039 2.039 
196.97 1 33.039 -2.039 0 
196.97 1 35.078 -2.039 2.039 
196.97 1 37.117 -2.039 0 
196.97 1 39.157 -2.039 2.039 
196.97 1 -8.157 0 0 
196.97 1 -8.157 2.039 2.039 
196.97 1 -6.117 0 2.039 
196.97 1 -6.117 2.039 0 
196.97 1 -4.078 0 0 
196.97 1 -4.078 2.039 2.039 
196.97 1 -2.039 0 2.039 
196.97 1 -2.039 2.039 0 
196.97 1 0 0 0 
196.97 1 0 2.039 2.039 
196.97 1 2.039 0 2.039 
196.97 1 2.039 2.039 0 
196.97 1 4.078 0 0 
196.97 1 4.078 2.039 2.039 
196.97 1 6.117 0 2.039 
196.97 1 6.117 2.039 0 
196.97 1 8.157 0 0 
196.97 1 8.157 2.039 2.039 
196.97 1 22.843 0 0 
196.97 1 22.843 2.039 2.039 
196.97 1 24.883 0 2.039 
196.97 1 24.883 2.039 0 
196.97 1 26.922 0 0 
196.97 1 26.922 2.039 2.039 
196.97 1 28.961 0 2.039 
196.97 1 28.961 2.039 0 
196.97 1 31 0 0 
196.97 1 31 2.039 2.039 
196.97 1 33.039 0 2.039 
196.97 1 33.039 2.039 0 
196.97 1 35.078 0 0 
196.97 1 35.078 2.039 2.039 
196.97 1 37.117 0 2.039 
196.97 1 37.117 2.039 0 
196.97 1 39.157 0 0 
196.97 1 39.157 2.039 2.039 
196.97 1 -8.157 4.078 0 
196.97 1 -6.117 4.078 2.039 
196.97 1 -6.117 6.117 0 
196.97 1 -4.078 4.078 0 
196.97 1 -4.078 6.117 2.039 
196.97 1 -2.039 4.078 2.039 
196.97 1 -2.039 6.117 0 
196.97 1 0 4.078 0 
196.97 1 0 6.117 2.039 
196.97 1 2.039 4.078 2.039 
196.97 1 2.039 6.117 0 
196.97 1 4.078 4.078 0 
196.97 1 4.078 6.117 2.039 
196.97 1 6.117 4.078 2.039 
196.97 1 6.117 6.117 0 
196.97 1 8.157 4.078 0 
196.97 1 22.843 4.078 0 
196.97 1 24.883 4.078 2.039 
196.97 1 24.883 6.117 0 
196.97 1 26.922 4.078 0 
196.97 1 26.922 6.117 2.039 
196.97 1 28.961 4.078 2.039 
196.97 1 28.961 6.117 0 
196.97 1 31 4.078 0 
196.97 1 31 6.117 2.039 
196.97 1 33.039 4.078 2.039 
196.97 1 33.039 6.117 0 
196.97 1 35.078 4.078 0 
196.97 1 35.078 6.117 2.039 
196.97 1 37.117 4.078 2.039 
196.97 1 37.117 6.117 0 
196.97 1 39.157 4.078 0 
196.97 1 -4.078 8.157 0 
196.97 1 -2.039 8.157 2.039 
196.97 1 0 8.157 0 
196.97 1 2.039 8.157 2.039 
196.97 1 4.078 8.157 0 
196.97 1 26.922 8.157 0 
196.97 1 28.961 8.157 2.039 
196.97 1 31 8.157 0 
196.97 1 33.039 8.157 2.039 
196.97 1 35.078 8.157 0 
196.97 1 -4.078 -8.157 4.078 
196.97 1 0 -8.157 4.078 
196.97 1 4.078 -8.157 4.078 
196.97 1 26.922 -8.157 4.078 
196.97 1 31 -8.157 4.078 
196.97 1 35.078 -8.157 4.078 
196.97 1 -8.157 -4.078 4.078 
196.97 1 -6.117 -6.117 4.078 
196.97 1 -4.078 -6.117 6.117 
196.97 1 -6.117 -4.078 6.117 
196.97 1 -4.078 -4.078 4.078 
196.97 1 -2.039 -6.117 4.078 
196.97 1 -2.039 -4.078 6.117 
196.97 1 0 -6.117 6.117 
196.97 1 2.039 -6.117 4.078 
196.97 1 0 -4.078 4.078 
196.97 1 2.039 -4.078 6.117 
196.97 1 4.078 -6.117 6.117 
196.97 1 6.117 -6.117 4.078 
196.97 1 4.078 -4.078 4.078 
196.97 1 6.117 -4.078 6.117 
196.97 1 8.157 -4.078 4.078 
196.97 1 22.843 -4.078 4.078 
196.97 1 24.883 -6.117 4.078 
196.97 1 24.883 -4.078 6.117 
196.97 1 26.922 -6.117 6.117 
196.97 1 28.961 -6.117 4.078 
196.97 1 26.922 -4.078 4.078 
196.97 1 28.961 -4.078 6.117 
196.97 1 31 -6.117 6.117 
196.97 1 33.039 -6.117 4.078 
196.97 1 31 -4.078 4.078 
196.97 1 33.039 -4.078 6.117 
196.97 1 35.078 -6.117 6.117 
196.97 1 35.078 -4.078 4.078 
196.97 1 37.117 -6.117 4.078 
196.97 1 37.117 -4.078 6.117 
196.97 1 39.157 -4.078 4.078 
196.97 1 -6.117 -2.039 4.078 
196.97 1 -4.078 -2.039 6.117 
196.97 1 -2.039 -2.039 4.078 
196.97 1 0 -2.039 6.117 
196.97 1 2.039 -2.039 4.078 
196.97 1 4.078 -2.039 6.117 
196.97 1 6.117 -2.039 4.078 
196.97 1 24.883 -2.039 4.078 
196.97 1 26.922 -2.039 6.117 
196.97 1 28.961 -2.039 4.078 
196.97 1 31 -2.039 6.117 
196.97 1 33.039 -2.039 4.078 
196.97 1 35.078 -2.039 6.117 
196.97 1 37.117 -2.039 4.078 
196.97 1 -8.157 0 4.078 
196.97 1 -6.117 0 6.117 
196.97 1 -6.117 2.039 4.078 
196.97 1 -4.078 0 4.078 
196.97 1 -4.078 2.039 6.117 
196.97 1 -2.039 0 6.117 
196.97 1 -2.039 2.039 4.078 
196.97 1 0 0 4.078 
196.97 1 0 2.039 6.117 
196.97 1 2.039 0 6.117 
196.97 1 2.039 2.039 4.078 
196.97 1 4.078 0 4.078 
196.97 1 4.078 2.039 6.117 
196.97 1 6.117 0 6.117 
196.97 1 6.117 2.039 4.078 
196.97 1 8.157 0 4.078 
196.97 1 22.843 0 4.078 
196.97 1 24.883 0 6.117 
196.97 1 24.883 2.039 4.078 
196.97 1 26.922 0 4.078 
196.97 1 26.922 2.039 6.117 
196.97 1 28.961 0 6.117 
196.97 1 28.961 2.039 4.078 
196.97 1 31 0 4.078 
196.97 1 31 2.039 6.117 
196.97 1 33.039 0 6.117 
196.97 1 33.039 2.039 4.078 
196.97 1 35.078 0 4.078 
196.97 1 35.078 2.039 6.117 
196.97 1 37.117 0 6.117 
196.97 1 37.117 2.039 4.078 
196.97 1 39.157 0 4.078 
196.97 1 -8.157 4.078 4.078 
196.97 1 -6.117 4.078 6.117 
196.97 1 -6.117 6.117 4.078 
196.97 1 -4.078 4.078 4.078 
196.97 1 -4.078 6.117 6.117 
196.97 1 -2.039 4.078 6.117 
196.97 1 -2.039 6.117 4.078 
196.97 1 0 4.078 4.078 
196.97 1 0 6.117 6.117 
196.97 1 2.039 4.078 6.117 
196.97 1 2.039 6.117 4.078 
196.97 1 4.078 4.078 4.078 
196.97 1 4.078 6.117 6.117 
196.97 1 6.117 4.078 6.117 
196.97 1 6.117 6.117 4.078 
196.97 1 8.157 4.078 4.078 
196.97 1 22.843 4.078 4.078 
196.97 1 24.883 4.078 6.117 
196.97 1 24.883 6.117 4.078 
196.97 1 26.922 4.078 4.078 
196.97 1 26.922 6.117 6.117 
196.97 1 28.961 4.078 6.117 
196.97 1 28.961 6.117 4.078 
196.97 1 31 4.078 4.078 
196.97 1 31 6.117 6.117 
196.97 1 33.039 4.078 6.117 
196.97 1 33.039 6.117 4.078 
196.97 1 35.078 4.078 4.078 
196.97 1 35.078 6.117 6.117 
196.97 1 37.117 4.078 6.117 
196.97 1 37.117 6.117 4.078 
196.97 1 39.157 4.078 4.078 
196.97 1 -4.078 8.157 4.078 
196.97 1 0 8.157 4.078 
196.97 1 4.078 8.157 4.078 
196.97 1 26.922 8.157 4.078 
196.97 1 31 8.157 4.078 
196.97 1 35.078 8.157 4.078 
196.97 1 -4.078 -4.078 8.157 
196.97 1 0 -4.078 8.157 
196.97 1 4.078 -4.078 8.157 
196.97 1 26.922 -4.078 8.157 
196.97 1 31 -4.078 8.157 
196.97 1 35.078 -4.078 8.157 
196.97 1 -2.039 -2.039 8.157 
196.97 1 2.039 -2.039 8.157 
196.97 1 28.961 -2.039 8.157 
196.97 1 33.039 -2.039 8.157 
196.97 1 -4.078 0 8.157 
196.97 1 -2.039 2.039 8.157 
196.97 1 0 0 8.157 
196.97 1 2.039 2.039 8.157 
196.97 1 4.078 0 8.157 
196.97 1 26.922 0 8.157 
196.97 1 28.961 2.039 8.157 
196.97 1 31 0 8.157 
196.97 1 33.039 2.039 8.157 
196.97 1 35.078 0 8.157 
196.97 1 -4.078 4.078 8.157 
196.97 1 0 4.078 8.157 
196.97 1 4.078 4.078 8.157 
196.97 1 26.922 4.078 8.157 
196.97 1 31 4.078 8.157 
196.97 1 35.078 4.078 8.157 
