LAMMPS data file via write_data, version 30 Jul 2021, timestep = 0

375 atoms
2 atom types
250 bonds
1 bond types
125 angles
1 angle types

0 15.5 xlo xhi
0 15.5 ylo yhi
0 15.5 zlo zhi

Masses

1 1.00794
2 15.9994

Bond Coeffs # harmonic

1 450 0.9572

Angle Coeffs # harmonic

1 55 104.52

Atoms # full

3 1 1 0.5101365 1.55 0.79305 2.08588 0 0 0
78 26 1 0.5101365 1.55 0.79305 5.18588 0 0 0
18 6 1 0.5101365 1.55 3.89305 2.08588 0 0 0
93 31 1 0.5101365 1.55 3.89305 5.18588 0 0 0
33 11 1 0.5101365 1.55 6.99305 2.08588 0 0 0
108 36 1 0.5101365 1.55 6.99305 5.18588 0 0 0
6 2 1 0.5101365 4.65 0.79305 2.08588 0 0 0
81 27 1 0.5101365 4.65 0.79305 5.18588 0 0 0
21 7 1 0.5101365 4.65 3.89305 2.08588 0 0 0
96 32 1 0.5101365 4.65 3.89305 5.18588 0 0 0
36 12 1 0.5101365 4.65 6.99305 2.08588 0 0 0
111 37 1 0.5101365 4.65 6.99305 5.18588 0 0 0
1 1 2 -1.020273 1.55 1.55 1.5 0 0 0
76 26 2 -1.020273 1.55 1.55 4.6 0 0 0
151 51 2 -1.020273 1.55 1.55 7.7 0 0 0
16 6 2 -1.020273 1.55 4.65 1.5 0 0 0
91 31 2 -1.020273 1.55 4.65 4.6 0 0 0
166 56 2 -1.020273 1.55 4.65 7.7 0 0 0
4 2 2 -1.020273 4.65 1.55 1.5 0 0 0
79 27 2 -1.020273 4.65 1.55 4.6 0 0 0
154 52 2 -1.020273 4.65 1.55 7.7 0 0 0
19 7 2 -1.020273 4.65 4.65 1.5 0 0 0
94 32 2 -1.020273 4.65 4.65 4.6 0 0 0
169 57 2 -1.020273 4.65 4.65 7.7 0 0 0
2 1 1 0.5101365 1.55 2.30695 2.08588 0 0 0
77 26 1 0.5101365 1.55 2.30695 5.18588 0 0 0
17 6 1 0.5101365 1.55 5.40695 2.08588 0 0 0
92 31 1 0.5101365 1.55 5.40695 5.18588 0 0 0
5 2 1 0.5101365 4.65 2.30695 2.08588 0 0 0
80 27 1 0.5101365 4.65 2.30695 5.18588 0 0 0
20 7 1 0.5101365 4.65 5.40695 2.08588 0 0 0
95 32 1 0.5101365 4.65 5.40695 5.18588 0 0 0
153 51 1 0.5101365 1.55 0.79305 8.28588 0 0 0
228 76 1 0.5101365 1.55 0.79305 11.38588 0 0 0
303 101 1 0.5101365 1.55 0.79305 14.48588 0 0 0
168 56 1 0.5101365 1.55 3.89305 8.28588 0 0 0
243 81 1 0.5101365 1.55 3.89305 11.38588 0 0 0
318 106 1 0.5101365 1.55 3.89305 14.48588 0 0 0
183 61 1 0.5101365 1.55 6.99305 8.28588 0 0 0
258 86 1 0.5101365 1.55 6.99305 11.38588 0 0 0
333 111 1 0.5101365 1.55 6.99305 14.48588 0 0 0
156 52 1 0.5101365 4.65 0.79305 8.28588 0 0 0
231 77 1 0.5101365 4.65 0.79305 11.38588 0 0 0
306 102 1 0.5101365 4.65 0.79305 14.48588 0 0 0
171 57 1 0.5101365 4.65 3.89305 8.28588 0 0 0
246 82 1 0.5101365 4.65 3.89305 11.38588 0 0 0
321 107 1 0.5101365 4.65 3.89305 14.48588 0 0 0
186 62 1 0.5101365 4.65 6.99305 8.28588 0 0 0
261 87 1 0.5101365 4.65 6.99305 11.38588 0 0 0
336 112 1 0.5101365 4.65 6.99305 14.48588 0 0 0
226 76 2 -1.020273 1.55 1.55 10.8 0 0 0
301 101 2 -1.020273 1.55 1.55 13.9 0 0 0
241 81 2 -1.020273 1.55 4.65 10.8 0 0 0
316 106 2 -1.020273 1.55 4.65 13.9 0 0 0
229 77 2 -1.020273 4.65 1.55 10.8 0 0 0
304 102 2 -1.020273 4.65 1.55 13.9 0 0 0
244 82 2 -1.020273 4.65 4.65 10.8 0 0 0
319 107 2 -1.020273 4.65 4.65 13.9 0 0 0
152 51 1 0.5101365 1.55 2.30695 8.28588 0 0 0
227 76 1 0.5101365 1.55 2.30695 11.38588 0 0 0
302 101 1 0.5101365 1.55 2.30695 14.48588 0 0 0
167 56 1 0.5101365 1.55 5.40695 8.28588 0 0 0
242 81 1 0.5101365 1.55 5.40695 11.38588 0 0 0
317 106 1 0.5101365 1.55 5.40695 14.48588 0 0 0
155 52 1 0.5101365 4.65 2.30695 8.28588 0 0 0
230 77 1 0.5101365 4.65 2.30695 11.38588 0 0 0
305 102 1 0.5101365 4.65 2.30695 14.48588 0 0 0
170 57 1 0.5101365 4.65 5.40695 8.28588 0 0 0
245 82 1 0.5101365 4.65 5.40695 11.38588 0 0 0
320 107 1 0.5101365 4.65 5.40695 14.48588 0 0 0
48 16 1 0.5101365 1.55 10.093050000000002 2.08588 0 0 0
123 41 1 0.5101365 1.55 10.093050000000002 5.18588 0 0 0
63 21 1 0.5101365 1.55 13.19305 2.08588 0 0 0
138 46 1 0.5101365 1.55 13.19305 5.18588 0 0 0
51 17 1 0.5101365 4.65 10.093050000000002 2.08588 0 0 0
126 42 1 0.5101365 4.65 10.093050000000002 5.18588 0 0 0
66 22 1 0.5101365 4.65 13.19305 2.08588 0 0 0
141 47 1 0.5101365 4.65 13.19305 5.18588 0 0 0
31 11 2 -1.020273 1.55 7.75 1.5 0 0 0
106 36 2 -1.020273 1.55 7.75 4.6 0 0 0
181 61 2 -1.020273 1.55 7.75 7.7 0 0 0
46 16 2 -1.020273 1.55 10.850000000000001 1.5 0 0 0
121 41 2 -1.020273 1.55 10.850000000000001 4.6 0 0 0
196 66 2 -1.020273 1.55 10.850000000000001 7.7 0 0 0
61 21 2 -1.020273 1.55 13.950000000000001 1.5 0 0 0
136 46 2 -1.020273 1.55 13.950000000000001 4.6 0 0 0
211 71 2 -1.020273 1.55 13.950000000000001 7.7 0 0 0
34 12 2 -1.020273 4.65 7.75 1.5 0 0 0
109 37 2 -1.020273 4.65 7.75 4.6 0 0 0
184 62 2 -1.020273 4.65 7.75 7.7 0 0 0
49 17 2 -1.020273 4.65 10.850000000000001 1.5 0 0 0
124 42 2 -1.020273 4.65 10.850000000000001 4.6 0 0 0
199 67 2 -1.020273 4.65 10.850000000000001 7.7 0 0 0
64 22 2 -1.020273 4.65 13.950000000000001 1.5 0 0 0
139 47 2 -1.020273 4.65 13.950000000000001 4.6 0 0 0
214 72 2 -1.020273 4.65 13.950000000000001 7.7 0 0 0
32 11 1 0.5101365 1.55 8.50695 2.08588 0 0 0
107 36 1 0.5101365 1.55 8.50695 5.18588 0 0 0
47 16 1 0.5101365 1.55 11.606950000000001 2.08588 0 0 0
122 41 1 0.5101365 1.55 11.606950000000001 5.18588 0 0 0
62 21 1 0.5101365 1.55 14.70695 2.08588 0 0 0
137 46 1 0.5101365 1.55 14.70695 5.18588 0 0 0
35 12 1 0.5101365 4.65 8.50695 2.08588 0 0 0
110 37 1 0.5101365 4.65 8.50695 5.18588 0 0 0
50 17 1 0.5101365 4.65 11.606950000000001 2.08588 0 0 0
125 42 1 0.5101365 4.65 11.606950000000001 5.18588 0 0 0
65 22 1 0.5101365 4.65 14.70695 2.08588 0 0 0
140 47 1 0.5101365 4.65 14.70695 5.18588 0 0 0
198 66 1 0.5101365 1.55 10.093050000000002 8.28588 0 0 0
273 91 1 0.5101365 1.55 10.093050000000002 11.38588 0 0 0
348 116 1 0.5101365 1.55 10.093050000000002 14.48588 0 0 0
213 71 1 0.5101365 1.55 13.19305 8.28588 0 0 0
288 96 1 0.5101365 1.55 13.19305 11.38588 0 0 0
363 121 1 0.5101365 1.55 13.19305 14.48588 0 0 0
201 67 1 0.5101365 4.65 10.093050000000002 8.28588 0 0 0
276 92 1 0.5101365 4.65 10.093050000000002 11.38588 0 0 0
351 117 1 0.5101365 4.65 10.093050000000002 14.48588 0 0 0
216 72 1 0.5101365 4.65 13.19305 8.28588 0 0 0
291 97 1 0.5101365 4.65 13.19305 11.38588 0 0 0
366 122 1 0.5101365 4.65 13.19305 14.48588 0 0 0
256 86 2 -1.020273 1.55 7.75 10.8 0 0 0
331 111 2 -1.020273 1.55 7.75 13.9 0 0 0
271 91 2 -1.020273 1.55 10.850000000000001 10.8 0 0 0
346 116 2 -1.020273 1.55 10.850000000000001 13.9 0 0 0
286 96 2 -1.020273 1.55 13.950000000000001 10.8 0 0 0
361 121 2 -1.020273 1.55 13.950000000000001 13.9 0 0 0
259 87 2 -1.020273 4.65 7.75 10.8 0 0 0
334 112 2 -1.020273 4.65 7.75 13.9 0 0 0
274 92 2 -1.020273 4.65 10.850000000000001 10.8 0 0 0
349 117 2 -1.020273 4.65 10.850000000000001 13.9 0 0 0
289 97 2 -1.020273 4.65 13.950000000000001 10.8 0 0 0
364 122 2 -1.020273 4.65 13.950000000000001 13.9 0 0 0
182 61 1 0.5101365 1.55 8.50695 8.28588 0 0 0
257 86 1 0.5101365 1.55 8.50695 11.38588 0 0 0
332 111 1 0.5101365 1.55 8.50695 14.48588 0 0 0
197 66 1 0.5101365 1.55 11.606950000000001 8.28588 0 0 0
272 91 1 0.5101365 1.55 11.606950000000001 11.38588 0 0 0
347 116 1 0.5101365 1.55 11.606950000000001 14.48588 0 0 0
212 71 1 0.5101365 1.55 14.70695 8.28588 0 0 0
287 96 1 0.5101365 1.55 14.70695 11.38588 0 0 0
362 121 1 0.5101365 1.55 14.70695 14.48588 0 0 0
185 62 1 0.5101365 4.65 8.50695 8.28588 0 0 0
260 87 1 0.5101365 4.65 8.50695 11.38588 0 0 0
335 112 1 0.5101365 4.65 8.50695 14.48588 0 0 0
200 67 1 0.5101365 4.65 11.606950000000001 8.28588 0 0 0
275 92 1 0.5101365 4.65 11.606950000000001 11.38588 0 0 0
350 117 1 0.5101365 4.65 11.606950000000001 14.48588 0 0 0
215 72 1 0.5101365 4.65 14.70695 8.28588 0 0 0
290 97 1 0.5101365 4.65 14.70695 11.38588 0 0 0
365 122 1 0.5101365 4.65 14.70695 14.48588 0 0 0
9 3 1 0.5101365 7.75 0.79305 2.08588 0 0 0
84 28 1 0.5101365 7.75 0.79305 5.18588 0 0 0
24 8 1 0.5101365 7.75 3.89305 2.08588 0 0 0
99 33 1 0.5101365 7.75 3.89305 5.18588 0 0 0
39 13 1 0.5101365 7.75 6.99305 2.08588 0 0 0
114 38 1 0.5101365 7.75 6.99305 5.18588 0 0 0
12 4 1 0.5101365 10.850000000000001 0.79305 2.08588 0 0 0
87 29 1 0.5101365 10.850000000000001 0.79305 5.18588 0 0 0
27 9 1 0.5101365 10.850000000000001 3.89305 2.08588 0 0 0
102 34 1 0.5101365 10.850000000000001 3.89305 5.18588 0 0 0
42 14 1 0.5101365 10.850000000000001 6.99305 2.08588 0 0 0
117 39 1 0.5101365 10.850000000000001 6.99305 5.18588 0 0 0
15 5 1 0.5101365 13.950000000000001 0.79305 2.08588 0 0 0
90 30 1 0.5101365 13.950000000000001 0.79305 5.18588 0 0 0
30 10 1 0.5101365 13.950000000000001 3.89305 2.08588 0 0 0
105 35 1 0.5101365 13.950000000000001 3.89305 5.18588 0 0 0
45 15 1 0.5101365 13.950000000000001 6.99305 2.08588 0 0 0
120 40 1 0.5101365 13.950000000000001 6.99305 5.18588 0 0 0
7 3 2 -1.020273 7.75 1.55 1.5 0 0 0
82 28 2 -1.020273 7.75 1.55 4.6 0 0 0
157 53 2 -1.020273 7.75 1.55 7.7 0 0 0
22 8 2 -1.020273 7.75 4.65 1.5 0 0 0
97 33 2 -1.020273 7.75 4.65 4.6 0 0 0
172 58 2 -1.020273 7.75 4.65 7.7 0 0 0
10 4 2 -1.020273 10.850000000000001 1.55 1.5 0 0 0
85 29 2 -1.020273 10.850000000000001 1.55 4.6 0 0 0
160 54 2 -1.020273 10.850000000000001 1.55 7.7 0 0 0
25 9 2 -1.020273 10.850000000000001 4.65 1.5 0 0 0
100 34 2 -1.020273 10.850000000000001 4.65 4.6 0 0 0
175 59 2 -1.020273 10.850000000000001 4.65 7.7 0 0 0
13 5 2 -1.020273 13.950000000000001 1.55 1.5 0 0 0
88 30 2 -1.020273 13.950000000000001 1.55 4.6 0 0 0
163 55 2 -1.020273 13.950000000000001 1.55 7.7 0 0 0
28 10 2 -1.020273 13.950000000000001 4.65 1.5 0 0 0
103 35 2 -1.020273 13.950000000000001 4.65 4.6 0 0 0
178 60 2 -1.020273 13.950000000000001 4.65 7.7 0 0 0
8 3 1 0.5101365 7.75 2.30695 2.08588 0 0 0
83 28 1 0.5101365 7.75 2.30695 5.18588 0 0 0
23 8 1 0.5101365 7.75 5.40695 2.08588 0 0 0
98 33 1 0.5101365 7.75 5.40695 5.18588 0 0 0
11 4 1 0.5101365 10.850000000000001 2.30695 2.08588 0 0 0
86 29 1 0.5101365 10.850000000000001 2.30695 5.18588 0 0 0
26 9 1 0.5101365 10.850000000000001 5.40695 2.08588 0 0 0
101 34 1 0.5101365 10.850000000000001 5.40695 5.18588 0 0 0
14 5 1 0.5101365 13.950000000000001 2.30695 2.08588 0 0 0
89 30 1 0.5101365 13.950000000000001 2.30695 5.18588 0 0 0
29 10 1 0.5101365 13.950000000000001 5.40695 2.08588 0 0 0
104 35 1 0.5101365 13.950000000000001 5.40695 5.18588 0 0 0
159 53 1 0.5101365 7.75 0.79305 8.28588 0 0 0
234 78 1 0.5101365 7.75 0.79305 11.38588 0 0 0
309 103 1 0.5101365 7.75 0.79305 14.48588 0 0 0
174 58 1 0.5101365 7.75 3.89305 8.28588 0 0 0
249 83 1 0.5101365 7.75 3.89305 11.38588 0 0 0
324 108 1 0.5101365 7.75 3.89305 14.48588 0 0 0
189 63 1 0.5101365 7.75 6.99305 8.28588 0 0 0
264 88 1 0.5101365 7.75 6.99305 11.38588 0 0 0
339 113 1 0.5101365 7.75 6.99305 14.48588 0 0 0
162 54 1 0.5101365 10.850000000000001 0.79305 8.28588 0 0 0
237 79 1 0.5101365 10.850000000000001 0.79305 11.38588 0 0 0
312 104 1 0.5101365 10.850000000000001 0.79305 14.48588 0 0 0
177 59 1 0.5101365 10.850000000000001 3.89305 8.28588 0 0 0
252 84 1 0.5101365 10.850000000000001 3.89305 11.38588 0 0 0
327 109 1 0.5101365 10.850000000000001 3.89305 14.48588 0 0 0
192 64 1 0.5101365 10.850000000000001 6.99305 8.28588 0 0 0
267 89 1 0.5101365 10.850000000000001 6.99305 11.38588 0 0 0
342 114 1 0.5101365 10.850000000000001 6.99305 14.48588 0 0 0
165 55 1 0.5101365 13.950000000000001 0.79305 8.28588 0 0 0
240 80 1 0.5101365 13.950000000000001 0.79305 11.38588 0 0 0
315 105 1 0.5101365 13.950000000000001 0.79305 14.48588 0 0 0
180 60 1 0.5101365 13.950000000000001 3.89305 8.28588 0 0 0
255 85 1 0.5101365 13.950000000000001 3.89305 11.38588 0 0 0
330 110 1 0.5101365 13.950000000000001 3.89305 14.48588 0 0 0
195 65 1 0.5101365 13.950000000000001 6.99305 8.28588 0 0 0
270 90 1 0.5101365 13.950000000000001 6.99305 11.38588 0 0 0
345 115 1 0.5101365 13.950000000000001 6.99305 14.48588 0 0 0
232 78 2 -1.020273 7.75 1.55 10.8 0 0 0
307 103 2 -1.020273 7.75 1.55 13.9 0 0 0
247 83 2 -1.020273 7.75 4.65 10.8 0 0 0
322 108 2 -1.020273 7.75 4.65 13.9 0 0 0
235 79 2 -1.020273 10.850000000000001 1.55 10.8 0 0 0
310 104 2 -1.020273 10.850000000000001 1.55 13.9 0 0 0
250 84 2 -1.020273 10.850000000000001 4.65 10.8 0 0 0
325 109 2 -1.020273 10.850000000000001 4.65 13.9 0 0 0
238 80 2 -1.020273 13.950000000000001 1.55 10.8 0 0 0
313 105 2 -1.020273 13.950000000000001 1.55 13.9 0 0 0
253 85 2 -1.020273 13.950000000000001 4.65 10.8 0 0 0
328 110 2 -1.020273 13.950000000000001 4.65 13.9 0 0 0
158 53 1 0.5101365 7.75 2.30695 8.28588 0 0 0
233 78 1 0.5101365 7.75 2.30695 11.38588 0 0 0
308 103 1 0.5101365 7.75 2.30695 14.48588 0 0 0
173 58 1 0.5101365 7.75 5.40695 8.28588 0 0 0
248 83 1 0.5101365 7.75 5.40695 11.38588 0 0 0
323 108 1 0.5101365 7.75 5.40695 14.48588 0 0 0
161 54 1 0.5101365 10.850000000000001 2.30695 8.28588 0 0 0
236 79 1 0.5101365 10.850000000000001 2.30695 11.38588 0 0 0
311 104 1 0.5101365 10.850000000000001 2.30695 14.48588 0 0 0
176 59 1 0.5101365 10.850000000000001 5.40695 8.28588 0 0 0
251 84 1 0.5101365 10.850000000000001 5.40695 11.38588 0 0 0
326 109 1 0.5101365 10.850000000000001 5.40695 14.48588 0 0 0
164 55 1 0.5101365 13.950000000000001 2.30695 8.28588 0 0 0
239 80 1 0.5101365 13.950000000000001 2.30695 11.38588 0 0 0
314 105 1 0.5101365 13.950000000000001 2.30695 14.48588 0 0 0
179 60 1 0.5101365 13.950000000000001 5.40695 8.28588 0 0 0
254 85 1 0.5101365 13.950000000000001 5.40695 11.38588 0 0 0
329 110 1 0.5101365 13.950000000000001 5.40695 14.48588 0 0 0
54 18 1 0.5101365 7.75 10.093050000000002 2.08588 0 0 0
129 43 1 0.5101365 7.75 10.093050000000002 5.18588 0 0 0
69 23 1 0.5101365 7.75 13.19305 2.08588 0 0 0
144 48 1 0.5101365 7.75 13.19305 5.18588 0 0 0
57 19 1 0.5101365 10.850000000000001 10.093050000000002 2.08588 0 0 0
132 44 1 0.5101365 10.850000000000001 10.093050000000002 5.18588 0 0 0
72 24 1 0.5101365 10.850000000000001 13.19305 2.08588 0 0 0
147 49 1 0.5101365 10.850000000000001 13.19305 5.18588 0 0 0
60 20 1 0.5101365 13.950000000000001 10.093050000000002 2.08588 0 0 0
135 45 1 0.5101365 13.950000000000001 10.093050000000002 5.18588 0 0 0
75 25 1 0.5101365 13.950000000000001 13.19305 2.08588 0 0 0
150 50 1 0.5101365 13.950000000000001 13.19305 5.18588 0 0 0
37 13 2 -1.020273 7.75 7.75 1.5 0 0 0
112 38 2 -1.020273 7.75 7.75 4.6 0 0 0
187 63 2 -1.020273 7.75 7.75 7.7 0 0 0
52 18 2 -1.020273 7.75 10.850000000000001 1.5 0 0 0
127 43 2 -1.020273 7.75 10.850000000000001 4.6 0 0 0
202 68 2 -1.020273 7.75 10.850000000000001 7.7 0 0 0
67 23 2 -1.020273 7.75 13.950000000000001 1.5 0 0 0
142 48 2 -1.020273 7.75 13.950000000000001 4.6 0 0 0
217 73 2 -1.020273 7.75 13.950000000000001 7.7 0 0 0
40 14 2 -1.020273 10.850000000000001 7.75 1.5 0 0 0
115 39 2 -1.020273 10.850000000000001 7.75 4.6 0 0 0
190 64 2 -1.020273 10.850000000000001 7.75 7.7 0 0 0
55 19 2 -1.020273 10.850000000000001 10.850000000000001 1.5 0 0 0
130 44 2 -1.020273 10.850000000000001 10.850000000000001 4.6 0 0 0
205 69 2 -1.020273 10.850000000000001 10.850000000000001 7.7 0 0 0
70 24 2 -1.020273 10.850000000000001 13.950000000000001 1.5 0 0 0
145 49 2 -1.020273 10.850000000000001 13.950000000000001 4.6 0 0 0
220 74 2 -1.020273 10.850000000000001 13.950000000000001 7.7 0 0 0
43 15 2 -1.020273 13.950000000000001 7.75 1.5 0 0 0
118 40 2 -1.020273 13.950000000000001 7.75 4.6 0 0 0
193 65 2 -1.020273 13.950000000000001 7.75 7.7 0 0 0
58 20 2 -1.020273 13.950000000000001 10.850000000000001 1.5 0 0 0
133 45 2 -1.020273 13.950000000000001 10.850000000000001 4.6 0 0 0
208 70 2 -1.020273 13.950000000000001 10.850000000000001 7.7 0 0 0
73 25 2 -1.020273 13.950000000000001 13.950000000000001 1.5 0 0 0
148 50 2 -1.020273 13.950000000000001 13.950000000000001 4.6 0 0 0
223 75 2 -1.020273 13.950000000000001 13.950000000000001 7.7 0 0 0
38 13 1 0.5101365 7.75 8.50695 2.08588 0 0 0
113 38 1 0.5101365 7.75 8.50695 5.18588 0 0 0
53 18 1 0.5101365 7.75 11.606950000000001 2.08588 0 0 0
128 43 1 0.5101365 7.75 11.606950000000001 5.18588 0 0 0
68 23 1 0.5101365 7.75 14.70695 2.08588 0 0 0
143 48 1 0.5101365 7.75 14.70695 5.18588 0 0 0
41 14 1 0.5101365 10.850000000000001 8.50695 2.08588 0 0 0
116 39 1 0.5101365 10.850000000000001 8.50695 5.18588 0 0 0
56 19 1 0.5101365 10.850000000000001 11.606950000000001 2.08588 0 0 0
131 44 1 0.5101365 10.850000000000001 11.606950000000001 5.18588 0 0 0
71 24 1 0.5101365 10.850000000000001 14.70695 2.08588 0 0 0
146 49 1 0.5101365 10.850000000000001 14.70695 5.18588 0 0 0
44 15 1 0.5101365 13.950000000000001 8.50695 2.08588 0 0 0
119 40 1 0.5101365 13.950000000000001 8.50695 5.18588 0 0 0
59 20 1 0.5101365 13.950000000000001 11.606950000000001 2.08588 0 0 0
134 45 1 0.5101365 13.950000000000001 11.606950000000001 5.18588 0 0 0
74 25 1 0.5101365 13.950000000000001 14.70695 2.08588 0 0 0
149 50 1 0.5101365 13.950000000000001 14.70695 5.18588 0 0 0
204 68 1 0.5101365 7.75 10.093050000000002 8.28588 0 0 0
279 93 1 0.5101365 7.75 10.093050000000002 11.38588 0 0 0
354 118 1 0.5101365 7.75 10.093050000000002 14.48588 0 0 0
219 73 1 0.5101365 7.75 13.19305 8.28588 0 0 0
294 98 1 0.5101365 7.75 13.19305 11.38588 0 0 0
369 123 1 0.5101365 7.75 13.19305 14.48588 0 0 0
207 69 1 0.5101365 10.850000000000001 10.093050000000002 8.28588 0 0 0
282 94 1 0.5101365 10.850000000000001 10.093050000000002 11.38588 0 0 0
357 119 1 0.5101365 10.850000000000001 10.093050000000002 14.48588 0 0 0
222 74 1 0.5101365 10.850000000000001 13.19305 8.28588 0 0 0
297 99 1 0.5101365 10.850000000000001 13.19305 11.38588 0 0 0
372 124 1 0.5101365 10.850000000000001 13.19305 14.48588 0 0 0
210 70 1 0.5101365 13.950000000000001 10.093050000000002 8.28588 0 0 0
285 95 1 0.5101365 13.950000000000001 10.093050000000002 11.38588 0 0 0
360 120 1 0.5101365 13.950000000000001 10.093050000000002 14.48588 0 0 0
225 75 1 0.5101365 13.950000000000001 13.19305 8.28588 0 0 0
300 100 1 0.5101365 13.950000000000001 13.19305 11.38588 0 0 0
375 125 1 0.5101365 13.950000000000001 13.19305 14.48588 0 0 0
262 88 2 -1.020273 7.75 7.75 10.8 0 0 0
337 113 2 -1.020273 7.75 7.75 13.9 0 0 0
277 93 2 -1.020273 7.75 10.850000000000001 10.8 0 0 0
352 118 2 -1.020273 7.75 10.850000000000001 13.9 0 0 0
292 98 2 -1.020273 7.75 13.950000000000001 10.8 0 0 0
367 123 2 -1.020273 7.75 13.950000000000001 13.9 0 0 0
265 89 2 -1.020273 10.850000000000001 7.75 10.8 0 0 0
340 114 2 -1.020273 10.850000000000001 7.75 13.9 0 0 0
280 94 2 -1.020273 10.850000000000001 10.850000000000001 10.8 0 0 0
355 119 2 -1.020273 10.850000000000001 10.850000000000001 13.9 0 0 0
295 99 2 -1.020273 10.850000000000001 13.950000000000001 10.8 0 0 0
370 124 2 -1.020273 10.850000000000001 13.950000000000001 13.9 0 0 0
268 90 2 -1.020273 13.950000000000001 7.75 10.8 0 0 0
343 115 2 -1.020273 13.950000000000001 7.75 13.9 0 0 0
283 95 2 -1.020273 13.950000000000001 10.850000000000001 10.8 0 0 0
358 120 2 -1.020273 13.950000000000001 10.850000000000001 13.9 0 0 0
298 100 2 -1.020273 13.950000000000001 13.950000000000001 10.8 0 0 0
373 125 2 -1.020273 13.950000000000001 13.950000000000001 13.9 0 0 0
188 63 1 0.5101365 7.75 8.50695 8.28588 0 0 0
263 88 1 0.5101365 7.75 8.50695 11.38588 0 0 0
338 113 1 0.5101365 7.75 8.50695 14.48588 0 0 0
203 68 1 0.5101365 7.75 11.606950000000001 8.28588 0 0 0
278 93 1 0.5101365 7.75 11.606950000000001 11.38588 0 0 0
353 118 1 0.5101365 7.75 11.606950000000001 14.48588 0 0 0
218 73 1 0.5101365 7.75 14.70695 8.28588 0 0 0
293 98 1 0.5101365 7.75 14.70695 11.38588 0 0 0
368 123 1 0.5101365 7.75 14.70695 14.48588 0 0 0
191 64 1 0.5101365 10.850000000000001 8.50695 8.28588 0 0 0
266 89 1 0.5101365 10.850000000000001 8.50695 11.38588 0 0 0
341 114 1 0.5101365 10.850000000000001 8.50695 14.48588 0 0 0
206 69 1 0.5101365 10.850000000000001 11.606950000000001 8.28588 0 0 0
281 94 1 0.5101365 10.850000000000001 11.606950000000001 11.38588 0 0 0
356 119 1 0.5101365 10.850000000000001 11.606950000000001 14.48588 0 0 0
221 74 1 0.5101365 10.850000000000001 14.70695 8.28588 0 0 0
296 99 1 0.5101365 10.850000000000001 14.70695 11.38588 0 0 0
371 124 1 0.5101365 10.850000000000001 14.70695 14.48588 0 0 0
194 65 1 0.5101365 13.950000000000001 8.50695 8.28588 0 0 0
269 90 1 0.5101365 13.950000000000001 8.50695 11.38588 0 0 0
344 115 1 0.5101365 13.950000000000001 8.50695 14.48588 0 0 0
209 70 1 0.5101365 13.950000000000001 11.606950000000001 8.28588 0 0 0
284 95 1 0.5101365 13.950000000000001 11.606950000000001 11.38588 0 0 0
359 120 1 0.5101365 13.950000000000001 11.606950000000001 14.48588 0 0 0
224 75 1 0.5101365 13.950000000000001 14.70695 8.28588 0 0 0
299 100 1 0.5101365 13.950000000000001 14.70695 11.38588 0 0 0
374 125 1 0.5101365 13.950000000000001 14.70695 14.48588 0 0 0

Velocities

3 0 0 0
78 0 0 0
18 0 0 0
93 0 0 0
33 0 0 0
108 0 0 0
6 0 0 0
81 0 0 0
21 0 0 0
96 0 0 0
36 0 0 0
111 0 0 0
1 0 0 0
76 0 0 0
151 0 0 0
16 0 0 0
91 0 0 0
166 0 0 0
4 0 0 0
79 0 0 0
154 0 0 0
19 0 0 0
94 0 0 0
169 0 0 0
2 0 0 0
77 0 0 0
17 0 0 0
92 0 0 0
5 0 0 0
80 0 0 0
20 0 0 0
95 0 0 0
153 0 0 0
228 0 0 0
303 0 0 0
168 0 0 0
243 0 0 0
318 0 0 0
183 0 0 0
258 0 0 0
333 0 0 0
156 0 0 0
231 0 0 0
306 0 0 0
171 0 0 0
246 0 0 0
321 0 0 0
186 0 0 0
261 0 0 0
336 0 0 0
226 0 0 0
301 0 0 0
241 0 0 0
316 0 0 0
229 0 0 0
304 0 0 0
244 0 0 0
319 0 0 0
152 0 0 0
227 0 0 0
302 0 0 0
167 0 0 0
242 0 0 0
317 0 0 0
155 0 0 0
230 0 0 0
305 0 0 0
170 0 0 0
245 0 0 0
320 0 0 0
48 0 0 0
123 0 0 0
63 0 0 0
138 0 0 0
51 0 0 0
126 0 0 0
66 0 0 0
141 0 0 0
31 0 0 0
106 0 0 0
181 0 0 0
46 0 0 0
121 0 0 0
196 0 0 0
61 0 0 0
136 0 0 0
211 0 0 0
34 0 0 0
109 0 0 0
184 0 0 0
49 0 0 0
124 0 0 0
199 0 0 0
64 0 0 0
139 0 0 0
214 0 0 0
32 0 0 0
107 0 0 0
47 0 0 0
122 0 0 0
62 0 0 0
137 0 0 0
35 0 0 0
110 0 0 0
50 0 0 0
125 0 0 0
65 0 0 0
140 0 0 0
198 0 0 0
273 0 0 0
348 0 0 0
213 0 0 0
288 0 0 0
363 0 0 0
201 0 0 0
276 0 0 0
351 0 0 0
216 0 0 0
291 0 0 0
366 0 0 0
256 0 0 0
331 0 0 0
271 0 0 0
346 0 0 0
286 0 0 0
361 0 0 0
259 0 0 0
334 0 0 0
274 0 0 0
349 0 0 0
289 0 0 0
364 0 0 0
182 0 0 0
257 0 0 0
332 0 0 0
197 0 0 0
272 0 0 0
347 0 0 0
212 0 0 0
287 0 0 0
362 0 0 0
185 0 0 0
260 0 0 0
335 0 0 0
200 0 0 0
275 0 0 0
350 0 0 0
215 0 0 0
290 0 0 0
365 0 0 0
9 0 0 0
84 0 0 0
24 0 0 0
99 0 0 0
39 0 0 0
114 0 0 0
12 0 0 0
87 0 0 0
27 0 0 0
102 0 0 0
42 0 0 0
117 0 0 0
15 0 0 0
90 0 0 0
30 0 0 0
105 0 0 0
45 0 0 0
120 0 0 0
7 0 0 0
82 0 0 0
157 0 0 0
22 0 0 0
97 0 0 0
172 0 0 0
10 0 0 0
85 0 0 0
160 0 0 0
25 0 0 0
100 0 0 0
175 0 0 0
13 0 0 0
88 0 0 0
163 0 0 0
28 0 0 0
103 0 0 0
178 0 0 0
8 0 0 0
83 0 0 0
23 0 0 0
98 0 0 0
11 0 0 0
86 0 0 0
26 0 0 0
101 0 0 0
14 0 0 0
89 0 0 0
29 0 0 0
104 0 0 0
159 0 0 0
234 0 0 0
309 0 0 0
174 0 0 0
249 0 0 0
324 0 0 0
189 0 0 0
264 0 0 0
339 0 0 0
162 0 0 0
237 0 0 0
312 0 0 0
177 0 0 0
252 0 0 0
327 0 0 0
192 0 0 0
267 0 0 0
342 0 0 0
165 0 0 0
240 0 0 0
315 0 0 0
180 0 0 0
255 0 0 0
330 0 0 0
195 0 0 0
270 0 0 0
345 0 0 0
232 0 0 0
307 0 0 0
247 0 0 0
322 0 0 0
235 0 0 0
310 0 0 0
250 0 0 0
325 0 0 0
238 0 0 0
313 0 0 0
253 0 0 0
328 0 0 0
158 0 0 0
233 0 0 0
308 0 0 0
173 0 0 0
248 0 0 0
323 0 0 0
161 0 0 0
236 0 0 0
311 0 0 0
176 0 0 0
251 0 0 0
326 0 0 0
164 0 0 0
239 0 0 0
314 0 0 0
179 0 0 0
254 0 0 0
329 0 0 0
54 0 0 0
129 0 0 0
69 0 0 0
144 0 0 0
57 0 0 0
132 0 0 0
72 0 0 0
147 0 0 0
60 0 0 0
135 0 0 0
75 0 0 0
150 0 0 0
37 0 0 0
112 0 0 0
187 0 0 0
52 0 0 0
127 0 0 0
202 0 0 0
67 0 0 0
142 0 0 0
217 0 0 0
40 0 0 0
115 0 0 0
190 0 0 0
55 0 0 0
130 0 0 0
205 0 0 0
70 0 0 0
145 0 0 0
220 0 0 0
43 0 0 0
118 0 0 0
193 0 0 0
58 0 0 0
133 0 0 0
208 0 0 0
73 0 0 0
148 0 0 0
223 0 0 0
38 0 0 0
113 0 0 0
53 0 0 0
128 0 0 0
68 0 0 0
143 0 0 0
41 0 0 0
116 0 0 0
56 0 0 0
131 0 0 0
71 0 0 0
146 0 0 0
44 0 0 0
119 0 0 0
59 0 0 0
134 0 0 0
74 0 0 0
149 0 0 0
204 0 0 0
279 0 0 0
354 0 0 0
219 0 0 0
294 0 0 0
369 0 0 0
207 0 0 0
282 0 0 0
357 0 0 0
222 0 0 0
297 0 0 0
372 0 0 0
210 0 0 0
285 0 0 0
360 0 0 0
225 0 0 0
300 0 0 0
375 0 0 0
262 0 0 0
337 0 0 0
277 0 0 0
352 0 0 0
292 0 0 0
367 0 0 0
265 0 0 0
340 0 0 0
280 0 0 0
355 0 0 0
295 0 0 0
370 0 0 0
268 0 0 0
343 0 0 0
283 0 0 0
358 0 0 0
298 0 0 0
373 0 0 0
188 0 0 0
263 0 0 0
338 0 0 0
203 0 0 0
278 0 0 0
353 0 0 0
218 0 0 0
293 0 0 0
368 0 0 0
191 0 0 0
266 0 0 0
341 0 0 0
206 0 0 0
281 0 0 0
356 0 0 0
221 0 0 0
296 0 0 0
371 0 0 0
194 0 0 0
269 0 0 0
344 0 0 0
209 0 0 0
284 0 0 0
359 0 0 0
224 0 0 0
299 0 0 0
374 0 0 0

Bonds

1 1 1 2
2 1 1 3
3 1 76 77
4 1 76 78
5 1 151 152
6 1 151 153
7 1 16 17
8 1 16 18
9 1 91 92
10 1 91 93
11 1 166 167
12 1 166 168
13 1 4 5
14 1 4 6
15 1 79 80
16 1 79 81
17 1 154 155
18 1 154 156
19 1 19 20
20 1 19 21
21 1 94 95
22 1 94 96
23 1 169 170
24 1 169 171
25 1 226 227
26 1 226 228
27 1 301 302
28 1 301 303
29 1 241 242
30 1 241 243
31 1 316 317
32 1 316 318
33 1 229 230
34 1 229 231
35 1 304 305
36 1 304 306
37 1 244 245
38 1 244 246
39 1 319 320
40 1 319 321
41 1 31 32
42 1 31 33
43 1 106 107
44 1 106 108
45 1 181 182
46 1 181 183
47 1 46 47
48 1 46 48
49 1 121 122
50 1 121 123
51 1 196 197
52 1 196 198
53 1 61 62
54 1 61 63
55 1 136 137
56 1 136 138
57 1 211 212
58 1 211 213
59 1 34 35
60 1 34 36
61 1 109 110
62 1 109 111
63 1 184 185
64 1 184 186
65 1 49 50
66 1 49 51
67 1 124 125
68 1 124 126
69 1 199 200
70 1 199 201
71 1 64 65
72 1 64 66
73 1 139 140
74 1 139 141
75 1 214 215
76 1 214 216
77 1 256 257
78 1 256 258
79 1 331 332
80 1 331 333
81 1 271 272
82 1 271 273
83 1 346 347
84 1 346 348
85 1 286 287
86 1 286 288
87 1 361 362
88 1 361 363
89 1 259 260
90 1 259 261
91 1 334 335
92 1 334 336
93 1 274 275
94 1 274 276
95 1 349 350
96 1 349 351
97 1 289 290
98 1 289 291
99 1 364 365
100 1 364 366
101 1 7 8
102 1 7 9
103 1 82 83
104 1 82 84
105 1 157 158
106 1 157 159
107 1 22 23
108 1 22 24
109 1 97 98
110 1 97 99
111 1 172 173
112 1 172 174
113 1 10 11
114 1 10 12
115 1 85 86
116 1 85 87
117 1 160 161
118 1 160 162
119 1 25 26
120 1 25 27
121 1 100 101
122 1 100 102
123 1 175 176
124 1 175 177
125 1 13 14
126 1 13 15
127 1 88 89
128 1 88 90
129 1 163 164
130 1 163 165
131 1 28 29
132 1 28 30
133 1 103 104
134 1 103 105
135 1 178 179
136 1 178 180
137 1 232 233
138 1 232 234
139 1 307 308
140 1 307 309
141 1 247 248
142 1 247 249
143 1 322 323
144 1 322 324
145 1 235 236
146 1 235 237
147 1 310 311
148 1 310 312
149 1 250 251
150 1 250 252
151 1 325 326
152 1 325 327
153 1 238 239
154 1 238 240
155 1 313 314
156 1 313 315
157 1 253 254
158 1 253 255
159 1 328 329
160 1 328 330
161 1 37 38
162 1 37 39
163 1 112 113
164 1 112 114
165 1 187 188
166 1 187 189
167 1 52 53
168 1 52 54
169 1 127 128
170 1 127 129
171 1 202 203
172 1 202 204
173 1 67 68
174 1 67 69
175 1 142 143
176 1 142 144
177 1 217 218
178 1 217 219
179 1 40 41
180 1 40 42
181 1 115 116
182 1 115 117
183 1 190 191
184 1 190 192
185 1 55 56
186 1 55 57
187 1 130 131
188 1 130 132
189 1 205 206
190 1 205 207
191 1 70 71
192 1 70 72
193 1 145 146
194 1 145 147
195 1 220 221
196 1 220 222
197 1 43 44
198 1 43 45
199 1 118 119
200 1 118 120
201 1 193 194
202 1 193 195
203 1 58 59
204 1 58 60
205 1 133 134
206 1 133 135
207 1 208 209
208 1 208 210
209 1 73 74
210 1 73 75
211 1 148 149
212 1 148 150
213 1 223 224
214 1 223 225
215 1 262 263
216 1 262 264
217 1 337 338
218 1 337 339
219 1 277 278
220 1 277 279
221 1 352 353
222 1 352 354
223 1 292 293
224 1 292 294
225 1 367 368
226 1 367 369
227 1 265 266
228 1 265 267
229 1 340 341
230 1 340 342
231 1 280 281
232 1 280 282
233 1 355 356
234 1 355 357
235 1 295 296
236 1 295 297
237 1 370 371
238 1 370 372
239 1 268 269
240 1 268 270
241 1 343 344
242 1 343 345
243 1 283 284
244 1 283 285
245 1 358 359
246 1 358 360
247 1 298 299
248 1 298 300
249 1 373 374
250 1 373 375

Angles

1 1 2 1 3
2 1 77 76 78
3 1 152 151 153
4 1 17 16 18
5 1 92 91 93
6 1 167 166 168
7 1 5 4 6
8 1 80 79 81
9 1 155 154 156
10 1 20 19 21
11 1 95 94 96
12 1 170 169 171
13 1 227 226 228
14 1 302 301 303
15 1 242 241 243
16 1 317 316 318
17 1 230 229 231
18 1 305 304 306
19 1 245 244 246
20 1 320 319 321
21 1 32 31 33
22 1 107 106 108
23 1 182 181 183
24 1 47 46 48
25 1 122 121 123
26 1 197 196 198
27 1 62 61 63
28 1 137 136 138
29 1 212 211 213
30 1 35 34 36
31 1 110 109 111
32 1 185 184 186
33 1 50 49 51
34 1 125 124 126
35 1 200 199 201
36 1 65 64 66
37 1 140 139 141
38 1 215 214 216
39 1 257 256 258
40 1 332 331 333
41 1 272 271 273
42 1 347 346 348
43 1 287 286 288
44 1 362 361 363
45 1 260 259 261
46 1 335 334 336
47 1 275 274 276
48 1 350 349 351
49 1 290 289 291
50 1 365 364 366
51 1 8 7 9
52 1 83 82 84
53 1 158 157 159
54 1 23 22 24
55 1 98 97 99
56 1 173 172 174
57 1 11 10 12
58 1 86 85 87
59 1 161 160 162
60 1 26 25 27
61 1 101 100 102
62 1 176 175 177
63 1 14 13 15
64 1 89 88 90
65 1 164 163 165
66 1 29 28 30
67 1 104 103 105
68 1 179 178 180
69 1 233 232 234
70 1 308 307 309
71 1 248 247 249
72 1 323 322 324
73 1 236 235 237
74 1 311 310 312
75 1 251 250 252
76 1 326 325 327
77 1 239 238 240
78 1 314 313 315
79 1 254 253 255
80 1 329 328 330
81 1 38 37 39
82 1 113 112 114
83 1 188 187 189
84 1 53 52 54
85 1 128 127 129
86 1 203 202 204
87 1 68 67 69
88 1 143 142 144
89 1 218 217 219
90 1 41 40 42
91 1 116 115 117
92 1 191 190 192
93 1 56 55 57
94 1 131 130 132
95 1 206 205 207
96 1 71 70 72
97 1 146 145 147
98 1 221 220 222
99 1 44 43 45
100 1 119 118 120
101 1 194 193 195
102 1 59 58 60
103 1 134 133 135
104 1 209 208 210
105 1 74 73 75
106 1 149 148 150
107 1 224 223 225
108 1 263 262 264
109 1 338 337 339
110 1 278 277 279
111 1 353 352 354
112 1 293 292 294
113 1 368 367 369
114 1 266 265 267
115 1 341 340 342
116 1 281 280 282
117 1 356 355 357
118 1 296 295 297
119 1 371 370 372
120 1 269 268 270
121 1 344 343 345
122 1 284 283 285
123 1 359 358 360
124 1 299 298 300
125 1 374 373 375
