# LAMMPS data file written by OVITO Basic 3.5.4
819 atoms
542 bonds
271 angles
2 atom types
1 bond types
1 angle types

-2.979 16.148001 xlo xhi
-1.744 17.788 ylo yhi
0.076 19.26 zlo zhi

Masses

1 1.00794  # H
2 15.9994  # O

Atoms  # full

1 1 1 0.0 2.178 -1.258 1.403
2 1 1 0.0 0.0 2.515 1.403
3 1 1 0.0 4.406 2.544 1.403
4 1 1 0.0 0.0 5.088 4.975
5 1 1 0.0 2.178 1.258 4.975
6 1 1 0.0 2.979 -1.72 0.076
7 1 1 0.0 0.0 3.439 0.076
8 1 1 0.0 3.606 2.082 0.076
9 1 1 0.0 0.0 4.164 3.648
10 1 1 0.0 2.979 1.72 3.648
11 1 1 0.0 4.37 4.149 6.992
12 1 1 0.0 0.806 5.512 6.992
13 1 1 0.0 1.408 1.744 6.992
14 1 1 0.0 2.214 0.347 6.992
15 1 1 0.0 5.779 1.71 6.992
16 1 1 0.0 2.214 -0.347 3.42
17 1 1 0.0 5.779 -1.71 3.42
18 1 1 0.0 5.177 2.058 3.42
19 1 1 0.0 1.408 5.86 3.42
20 1 1 0.0 4.37 3.454 3.42
21 1 1 0.0 0.806 2.091 3.42
22 1 2 0.0 2.151 -1.242 0.398
23 1 2 0.0 0.0 2.484 0.398
24 1 2 0.0 4.434 2.56 0.398
25 1 2 0.0 0.0 5.12 3.969
26 1 2 0.0 2.151 1.242 3.969
27 1 2 0.0 0.0 5.023 6.64
28 1 2 0.0 2.235 1.29 6.64
29 1 2 0.0 2.235 -1.29 3.068
30 1 2 0.0 0.0 2.581 3.068
31 1 2 0.0 4.35 2.511 3.068
32 1 1 0.0 -2.178 -1.258 1.403
33 1 1 0.0 -2.979 -1.72 0.076
34 1 1 0.0 -2.214 0.347 6.992
35 1 1 0.0 -1.408 -1.744 3.42
36 1 1 0.0 -2.214 -0.347 3.42
37 1 2 0.0 -2.151 -1.242 0.398
38 1 2 0.0 -2.235 -1.29 3.068
39 1 1 0.0 1.408 -1.744 3.42
40 1 1 0.0 -2.178 6.346 1.403
41 1 1 0.0 -2.178 1.258 4.975
42 1 1 0.0 -2.979 5.884 0.076
43 1 1 0.0 -2.979 1.72 3.648
44 1 1 0.0 -2.214 7.951 6.992
45 1 1 0.0 -1.408 1.744 6.992
46 1 1 0.0 -0.806 5.512 6.992
47 1 1 0.0 -0.806 2.091 3.42
48 1 1 0.0 -1.408 5.86 3.42
49 1 1 0.0 -2.214 7.256 3.42
50 1 2 0.0 -2.151 6.362 0.398
51 1 2 0.0 -2.151 1.242 3.969
52 1 2 0.0 -2.235 1.29 6.64
53 1 2 0.0 -2.235 6.313 3.068
54 1 1 0.0 6.585 -1.286 1.403
55 1 1 0.0 10.991 -1.258 1.403
56 1 1 0.0 6.585 1.286 4.975
57 1 1 0.0 6.585 -0.362 0.076
58 1 1 0.0 10.191 -1.72 0.076
59 1 1 0.0 6.585 0.362 3.648
60 1 1 0.0 10.955 0.347 6.992
61 1 1 0.0 7.391 1.71 6.992
62 1 1 0.0 11.762 -1.744 3.42
63 1 1 0.0 7.993 2.058 3.42
64 1 1 0.0 10.955 -0.347 3.42
65 1 1 0.0 7.391 -1.71 3.42
66 1 2 0.0 6.585 -1.318 0.398
67 1 2 0.0 11.019 -1.242 0.398
68 1 2 0.0 6.585 1.318 3.969
69 1 2 0.0 6.585 1.221 6.64
70 1 2 0.0 6.585 -1.221 3.068
71 1 2 0.0 10.935 -1.29 3.068
72 1 1 0.0 14.578 -1.744 3.42
73 1 1 0.0 -2.178 13.949 1.403
74 1 1 0.0 -2.178 8.861 4.975
75 1 1 0.0 -2.979 13.487 0.076
76 1 1 0.0 -2.979 9.323 3.648
77 1 1 0.0 -2.214 15.555 6.992
78 1 1 0.0 -1.408 9.348 6.992
79 1 1 0.0 -0.806 13.116 6.992
80 1 1 0.0 -0.806 9.695 3.42
81 1 1 0.0 -1.408 13.463 3.42
82 1 1 0.0 -2.214 14.86 3.42
83 1 2 0.0 -2.151 13.965 0.398
84 1 2 0.0 -2.151 8.845 3.969
85 1 2 0.0 -2.235 8.894 6.64
86 1 2 0.0 -2.235 13.917 3.068
87 1 1 0.0 2.178 6.346 1.403
88 1 1 0.0 0.0 10.119 1.403
89 1 1 0.0 4.406 10.148 1.403
90 1 1 0.0 4.406 5.06 4.975
91 1 1 0.0 0.0 12.692 4.975
92 1 1 0.0 2.178 8.861 4.975
93 1 1 0.0 2.979 5.884 0.076
94 1 1 0.0 0.0 11.043 0.076
95 1 1 0.0 3.606 9.686 0.076
96 1 1 0.0 3.606 5.522 3.648
97 1 1 0.0 0.0 11.768 3.648
98 1 1 0.0 2.979 9.323 3.648
99 1 1 0.0 4.37 11.753 6.992
100 1 1 0.0 0.806 13.116 6.992
101 1 1 0.0 1.408 9.348 6.992
102 1 1 0.0 5.177 5.546 6.992
103 1 1 0.0 2.214 7.951 6.992
104 1 1 0.0 5.779 9.314 6.992
105 1 1 0.0 2.214 7.256 3.42
106 1 1 0.0 5.779 5.893 3.42
107 1 1 0.0 5.177 9.661 3.42
108 1 1 0.0 1.408 13.463 3.42
109 1 1 0.0 4.37 11.058 3.42
110 1 1 0.0 0.806 9.695 3.42
111 1 2 0.0 2.151 6.362 0.398
112 1 2 0.0 0.0 10.087 0.398
113 1 2 0.0 4.434 10.164 0.398
114 1 2 0.0 4.434 5.044 3.969
115 1 2 0.0 0.0 12.723 3.969
116 1 2 0.0 2.151 8.845 3.969
117 1 2 0.0 4.35 5.092 6.64
118 1 2 0.0 0.0 12.627 6.64
119 1 2 0.0 2.235 8.894 6.64
120 1 2 0.0 2.235 6.313 3.068
121 1 2 0.0 0.0 10.184 3.068
122 1 2 0.0 4.35 10.115 3.068
123 1 1 0.0 8.763 2.544 1.403
124 1 1 0.0 6.585 6.317 1.403
125 1 1 0.0 10.991 6.346 1.403
126 1 1 0.0 10.991 1.258 4.975
127 1 1 0.0 6.585 8.89 4.975
128 1 1 0.0 8.763 5.06 4.975
129 1 1 0.0 9.564 2.082 0.076
130 1 1 0.0 6.585 7.241 0.076
131 1 1 0.0 10.191 5.884 0.076
132 1 1 0.0 10.191 1.72 3.648
133 1 1 0.0 6.585 7.966 3.648
134 1 1 0.0 9.564 5.522 3.648
135 1 1 0.0 10.955 7.951 6.992
136 1 1 0.0 7.391 9.314 6.992
137 1 1 0.0 7.993 5.546 6.992
138 1 1 0.0 11.762 1.744 6.992
139 1 1 0.0 8.799 4.149 6.992
140 1 1 0.0 12.363 5.512 6.992
141 1 1 0.0 8.799 3.454 3.42
142 1 1 0.0 12.363 2.091 3.42
143 1 1 0.0 11.762 5.86 3.42
144 1 1 0.0 7.993 9.661 3.42
145 1 1 0.0 10.955 7.256 3.42
146 1 1 0.0 7.391 5.893 3.42
147 1 2 0.0 8.736 2.56 0.398
148 1 2 0.0 6.585 6.285 0.398
149 1 2 0.0 11.019 6.362 0.398
150 1 2 0.0 11.019 1.242 3.969
151 1 2 0.0 6.585 8.922 3.969
152 1 2 0.0 8.736 5.044 3.969
153 1 2 0.0 10.935 1.29 6.64
154 1 2 0.0 6.585 8.825 6.64
155 1 2 0.0 8.82 5.092 6.64
156 1 2 0.0 8.82 2.511 3.068
157 1 2 0.0 6.585 6.382 3.068
158 1 2 0.0 10.935 6.313 3.068
159 1 1 0.0 15.348 -1.258 1.403
160 1 1 0.0 13.17 2.515 1.403
161 1 1 0.0 13.17 5.088 4.975
162 1 1 0.0 15.348 1.258 4.975
163 1 1 0.0 16.148001 -1.72 0.076
164 1 1 0.0 13.17 3.439 0.076
165 1 1 0.0 13.17 4.164 3.648
166 1 1 0.0 16.148001 1.72 3.648
167 1 1 0.0 13.976 5.512 6.992
168 1 1 0.0 14.578 1.744 6.992
169 1 1 0.0 15.384 0.347 6.992
170 1 1 0.0 15.384 -0.347 3.42
171 1 1 0.0 14.578 5.86 3.42
172 1 1 0.0 13.976 2.091 3.42
173 1 2 0.0 15.321 -1.242 0.398
174 1 2 0.0 13.17 2.484 0.398
175 1 2 0.0 13.17 5.12 3.969
176 1 2 0.0 15.321 1.242 3.969
177 1 2 0.0 13.17 5.023 6.64
178 1 2 0.0 15.405 1.29 6.64
179 1 2 0.0 15.405 -1.29 3.068
180 1 2 0.0 13.17 2.581 3.068
181 1 1 0.0 -2.178 16.465 4.975
182 1 1 0.0 -2.979 16.927 3.648
183 1 1 0.0 -1.408 16.951 6.992
184 1 1 0.0 -0.806 17.299 3.42
185 1 2 0.0 -2.151 16.448999 3.969
186 1 2 0.0 -2.235 16.497 6.64
187 1 1 0.0 2.178 13.949 1.403
188 1 1 0.0 0.0 17.723 1.403
189 1 1 0.0 4.406 17.750999 1.403
190 1 1 0.0 4.406 12.663 4.975
191 1 1 0.0 2.178 16.465 4.975
192 1 1 0.0 2.979 13.487 0.076
193 1 1 0.0 3.606 17.289 0.076
194 1 1 0.0 3.606 13.125 3.648
195 1 1 0.0 2.979 16.927 3.648
196 1 1 0.0 1.408 16.951 6.992
197 1 1 0.0 5.177 13.149 6.992
198 1 1 0.0 2.214 15.555 6.992
199 1 1 0.0 5.779 16.917999 6.992
200 1 1 0.0 2.214 14.86 3.42
201 1 1 0.0 5.779 13.497 3.42
202 1 1 0.0 5.177 17.264999 3.42
203 1 1 0.0 0.806 17.299 3.42
204 1 2 0.0 2.151 13.965 0.398
205 1 2 0.0 0.0 17.691 0.398
206 1 2 0.0 4.434 17.767 0.398
207 1 2 0.0 4.434 12.647 3.969
208 1 2 0.0 2.151 16.448999 3.969
209 1 2 0.0 4.35 12.696 6.64
210 1 2 0.0 2.235 16.497 6.64
211 1 2 0.0 2.235 13.917 3.068
212 1 2 0.0 0.0 17.788 3.068
213 1 2 0.0 4.35 17.719 3.068
214 1 1 0.0 8.763 10.148 1.403
215 1 1 0.0 6.585 13.921 1.403
216 1 1 0.0 10.991 13.949 1.403
217 1 1 0.0 10.991 8.861 4.975
218 1 1 0.0 6.585 16.493 4.975
219 1 1 0.0 8.763 12.663 4.975
220 1 1 0.0 9.564 9.686 0.076
221 1 1 0.0 6.585 14.845 0.076
222 1 1 0.0 10.191 13.487 0.076
223 1 1 0.0 10.191 9.323 3.648
224 1 1 0.0 6.585 15.569 3.648
225 1 1 0.0 9.564 13.125 3.648
226 1 1 0.0 10.955 15.555 6.992
227 1 1 0.0 7.391 16.917999 6.992
228 1 1 0.0 7.993 13.149 6.992
229 1 1 0.0 11.762 9.348 6.992
230 1 1 0.0 8.799 11.753 6.992
231 1 1 0.0 12.363 13.116 6.992
232 1 1 0.0 8.799 11.058 3.42
233 1 1 0.0 12.363 9.695 3.42
234 1 1 0.0 11.762 13.463 3.42
235 1 1 0.0 7.993 17.264999 3.42
236 1 1 0.0 10.955 14.86 3.42
237 1 1 0.0 7.391 13.497 3.42
238 1 2 0.0 8.736 10.164 0.398
239 1 2 0.0 6.585 13.889 0.398
240 1 2 0.0 11.019 13.965 0.398
241 1 2 0.0 11.019 8.845 3.969
242 1 2 0.0 6.585 16.525 3.969
243 1 2 0.0 8.736 12.647 3.969
244 1 2 0.0 10.935 8.894 6.64
245 1 2 0.0 6.585 16.427999 6.64
246 1 2 0.0 8.82 12.696 6.64
247 1 2 0.0 8.82 10.115 3.068
248 1 2 0.0 6.585 13.986 3.068
249 1 2 0.0 10.935 13.917 3.068
250 1 1 0.0 15.348 6.346 1.403
251 1 1 0.0 13.17 10.119 1.403
252 1 1 0.0 13.17 12.692 4.975
253 1 1 0.0 15.348 8.861 4.975
254 1 1 0.0 16.148001 5.884 0.076
255 1 1 0.0 13.17 11.043 0.076
256 1 1 0.0 13.17 11.768 3.648
257 1 1 0.0 16.148001 9.323 3.648
258 1 1 0.0 13.976 13.116 6.992
259 1 1 0.0 14.578 9.348 6.992
260 1 1 0.0 15.384 7.951 6.992
261 1 1 0.0 15.384 7.256 3.42
262 1 1 0.0 14.578 13.463 3.42
263 1 1 0.0 13.976 9.695 3.42
264 1 2 0.0 15.321 6.362 0.398
265 1 2 0.0 13.17 10.087 0.398
266 1 2 0.0 13.17 12.723 3.969
267 1 2 0.0 15.321 8.845 3.969
268 1 2 0.0 13.17 12.627 6.64
269 1 2 0.0 15.405 8.894 6.64
270 1 2 0.0 15.405 6.313 3.068
271 1 2 0.0 13.17 10.184 3.068
272 1 1 0.0 8.763 17.750999 1.403
273 1 1 0.0 10.991 16.465 4.975
274 1 1 0.0 9.564 17.289 0.076
275 1 1 0.0 10.191 16.927 3.648
276 1 1 0.0 11.762 16.951 6.992
277 1 1 0.0 12.363 17.299 3.42
278 1 2 0.0 8.736 17.767 0.398
279 1 2 0.0 11.019 16.448999 3.969
280 1 2 0.0 10.935 16.497 6.64
281 1 2 0.0 8.82 17.719 3.068
282 1 1 0.0 15.348 13.949 1.403
283 1 1 0.0 13.17 17.723 1.403
284 1 1 0.0 15.348 16.465 4.975
285 1 1 0.0 16.148001 13.487 0.076
286 1 1 0.0 16.148001 16.927 3.648
287 1 1 0.0 14.578 16.951 6.992
288 1 1 0.0 15.384 15.555 6.992
289 1 1 0.0 15.384 14.86 3.42
290 1 1 0.0 13.976 17.299 3.42
291 1 2 0.0 15.321 13.965 0.398
292 1 2 0.0 13.17 17.691 0.398
293 1 2 0.0 15.321 16.448999 3.969
294 1 2 0.0 15.405 16.497 6.64
295 1 2 0.0 15.405 13.917 3.068
296 1 2 0.0 13.17 17.788 3.068
297 1 1 0.0 -2.178 -1.258 8.546
298 1 1 0.0 -2.979 -1.72 7.219
299 1 1 0.0 -2.214 0.347 14.135
300 1 1 0.0 -1.408 -1.744 10.563
301 1 1 0.0 -2.214 -0.347 10.563
302 1 2 0.0 -2.151 -1.242 7.541
303 1 2 0.0 -2.235 -1.29 10.211
304 1 1 0.0 1.408 -1.744 10.563
305 1 1 0.0 -2.178 6.346 8.546
306 1 1 0.0 -2.178 1.258 12.118
307 1 1 0.0 -2.979 5.884 7.219
308 1 1 0.0 -2.979 1.72 10.79
309 1 1 0.0 -2.214 7.951 14.135
310 1 1 0.0 -1.408 1.744 14.135
311 1 1 0.0 -0.806 5.512 14.135
312 1 1 0.0 -0.806 2.091 10.563
313 1 1 0.0 -1.408 5.86 10.563
314 1 1 0.0 -2.214 7.256 10.563
315 1 2 0.0 -2.151 6.362 7.541
316 1 2 0.0 -2.151 1.242 11.112
317 1 2 0.0 -2.235 1.29 13.783
318 1 2 0.0 -2.235 6.313 10.211
319 1 1 0.0 2.178 -1.258 8.546
320 1 1 0.0 0.0 2.515 8.546
321 1 1 0.0 4.406 2.544 8.546
322 1 1 0.0 0.0 5.088 12.118
323 1 1 0.0 2.178 1.258 12.118
324 1 1 0.0 2.979 -1.72 7.219
325 1 1 0.0 0.0 3.439 7.219
326 1 1 0.0 3.606 2.082 7.219
327 1 1 0.0 0.0 4.164 10.79
328 1 1 0.0 2.979 1.72 10.79
329 1 1 0.0 4.37 4.149 14.135
330 1 1 0.0 0.806 5.512 14.135
331 1 1 0.0 1.408 1.744 14.135
332 1 1 0.0 2.214 0.347 14.135
333 1 1 0.0 5.779 1.71 14.135
334 1 1 0.0 2.214 -0.347 10.563
335 1 1 0.0 5.779 -1.71 10.563
336 1 1 0.0 5.177 2.058 10.563
337 1 1 0.0 1.408 5.86 10.563
338 1 1 0.0 4.37 3.454 10.563
339 1 1 0.0 0.806 2.091 10.563
340 1 2 0.0 2.151 -1.242 7.541
341 1 2 0.0 0.0 2.484 7.541
342 1 2 0.0 4.434 2.56 7.541
343 1 2 0.0 0.0 5.12 11.112
344 1 2 0.0 2.151 1.242 11.112
345 1 2 0.0 0.0 5.023 13.783
346 1 2 0.0 2.235 1.29 13.783
347 1 2 0.0 2.235 -1.29 10.211
348 1 2 0.0 0.0 2.581 10.211
349 1 2 0.0 4.35 2.511 10.211
350 1 1 0.0 6.585 -1.286 8.546
351 1 1 0.0 10.991 -1.258 8.546
352 1 1 0.0 6.585 1.286 12.118
353 1 1 0.0 6.585 -0.362 7.219
354 1 1 0.0 10.191 -1.72 7.219
355 1 1 0.0 6.585 0.362 10.79
356 1 1 0.0 10.955 0.347 14.135
357 1 1 0.0 7.391 1.71 14.135
358 1 1 0.0 11.762 -1.744 10.563
359 1 1 0.0 7.993 2.058 10.563
360 1 1 0.0 10.955 -0.347 10.563
361 1 1 0.0 7.391 -1.71 10.563
362 1 2 0.0 6.585 -1.318 7.541
363 1 2 0.0 11.019 -1.242 7.541
364 1 2 0.0 6.585 1.318 11.112
365 1 2 0.0 6.585 1.221 13.783
366 1 2 0.0 6.585 -1.221 10.211
367 1 2 0.0 10.935 -1.29 10.211
368 1 1 0.0 14.578 -1.744 10.563
369 1 1 0.0 -2.178 13.949 8.546
370 1 1 0.0 -2.178 8.861 12.118
371 1 1 0.0 -2.979 13.487 7.219
372 1 1 0.0 -2.979 9.323 10.79
373 1 1 0.0 -2.214 15.555 14.135
374 1 1 0.0 -1.408 9.348 14.135
375 1 1 0.0 -0.806 13.116 14.135
376 1 1 0.0 -0.806 9.695 10.563
377 1 1 0.0 -1.408 13.463 10.563
378 1 1 0.0 -2.214 14.86 10.563
379 1 2 0.0 -2.151 13.965 7.541
380 1 2 0.0 -2.151 8.845 11.112
381 1 2 0.0 -2.235 8.894 13.783
382 1 2 0.0 -2.235 13.917 10.211
383 1 1 0.0 2.178 6.346 8.546
384 1 1 0.0 0.0 10.119 8.546
385 1 1 0.0 4.406 10.148 8.546
386 1 1 0.0 4.406 5.06 12.118
387 1 1 0.0 0.0 12.692 12.118
388 1 1 0.0 2.178 8.861 12.118
389 1 1 0.0 2.979 5.884 7.219
390 1 1 0.0 0.0 11.043 7.219
391 1 1 0.0 3.606 9.686 7.219
392 1 1 0.0 3.606 5.522 10.79
393 1 1 0.0 0.0 11.768 10.79
394 1 1 0.0 2.979 9.323 10.79
395 1 1 0.0 4.37 11.753 14.135
396 1 1 0.0 0.806 13.116 14.135
397 1 1 0.0 1.408 9.348 14.135
398 1 1 0.0 5.177 5.546 14.135
399 1 1 0.0 2.214 7.951 14.135
400 1 1 0.0 5.779 9.314 14.135
401 1 1 0.0 2.214 7.256 10.563
402 1 1 0.0 5.779 5.893 10.563
403 1 1 0.0 5.177 9.661 10.563
404 1 1 0.0 1.408 13.463 10.563
405 1 1 0.0 4.37 11.058 10.563
406 1 1 0.0 0.806 9.695 10.563
407 1 2 0.0 2.151 6.362 7.541
408 1 2 0.0 0.0 10.087 7.541
409 1 2 0.0 4.434 10.164 7.541
410 1 2 0.0 4.434 5.044 11.112
411 1 2 0.0 0.0 12.723 11.112
412 1 2 0.0 2.151 8.845 11.112
413 1 2 0.0 4.35 5.092 13.783
414 1 2 0.0 0.0 12.627 13.783
415 1 2 0.0 2.235 8.894 13.783
416 1 2 0.0 2.235 6.313 10.211
417 1 2 0.0 0.0 10.184 10.211
418 1 2 0.0 4.35 10.115 10.211
419 1 1 0.0 8.763 2.544 8.546
420 1 1 0.0 6.585 6.317 8.546
421 1 1 0.0 10.991 6.346 8.546
422 1 1 0.0 10.991 1.258 12.118
423 1 1 0.0 6.585 8.89 12.118
424 1 1 0.0 8.763 5.06 12.118
425 1 1 0.0 9.564 2.082 7.219
426 1 1 0.0 6.585 7.241 7.219
427 1 1 0.0 10.191 5.884 7.219
428 1 1 0.0 10.191 1.72 10.79
429 1 1 0.0 6.585 7.966 10.79
430 1 1 0.0 9.564 5.522 10.79
431 1 1 0.0 10.955 7.951 14.135
432 1 1 0.0 7.391 9.314 14.135
433 1 1 0.0 7.993 5.546 14.135
434 1 1 0.0 11.762 1.744 14.135
435 1 1 0.0 8.799 4.149 14.135
436 1 1 0.0 12.363 5.512 14.135
437 1 1 0.0 8.799 3.454 10.563
438 1 1 0.0 12.363 2.091 10.563
439 1 1 0.0 11.762 5.86 10.563
440 1 1 0.0 7.993 9.661 10.563
441 1 1 0.0 10.955 7.256 10.563
442 1 1 0.0 7.391 5.893 10.563
443 1 2 0.0 8.736 2.56 7.541
444 1 2 0.0 6.585 6.285 7.541
445 1 2 0.0 11.019 6.362 7.541
446 1 2 0.0 11.019 1.242 11.112
447 1 2 0.0 6.585 8.922 11.112
448 1 2 0.0 8.736 5.044 11.112
449 1 2 0.0 10.935 1.29 13.783
450 1 2 0.0 6.585 8.825 13.783
451 1 2 0.0 8.82 5.092 13.783
452 1 2 0.0 8.82 2.511 10.211
453 1 2 0.0 6.585 6.382 10.211
454 1 2 0.0 10.935 6.313 10.211
455 1 1 0.0 15.348 -1.258 8.546
456 1 1 0.0 13.17 2.515 8.546
457 1 1 0.0 13.17 5.088 12.118
458 1 1 0.0 15.348 1.258 12.118
459 1 1 0.0 16.148001 -1.72 7.219
460 1 1 0.0 13.17 3.439 7.219
461 1 1 0.0 13.17 4.164 10.79
462 1 1 0.0 16.148001 1.72 10.79
463 1 1 0.0 13.976 5.512 14.135
464 1 1 0.0 14.578 1.744 14.135
465 1 1 0.0 15.384 0.347 14.135
466 1 1 0.0 15.384 -0.347 10.563
467 1 1 0.0 14.578 5.86 10.563
468 1 1 0.0 13.976 2.091 10.563
469 1 2 0.0 15.321 -1.242 7.541
470 1 2 0.0 13.17 2.484 7.541
471 1 2 0.0 13.17 5.12 11.112
472 1 2 0.0 15.321 1.242 11.112
473 1 2 0.0 13.17 5.023 13.783
474 1 2 0.0 15.405 1.29 13.783
475 1 2 0.0 15.405 -1.29 10.211
476 1 2 0.0 13.17 2.581 10.211
477 1 1 0.0 -2.178 16.465 12.118
478 1 1 0.0 -2.979 16.927 10.79
479 1 1 0.0 -1.408 16.951 14.135
480 1 1 0.0 -0.806 17.299 10.563
481 1 2 0.0 -2.151 16.448999 11.112
482 1 2 0.0 -2.235 16.497 13.783
483 1 1 0.0 2.178 13.949 8.546
484 1 1 0.0 0.0 17.723 8.546
485 1 1 0.0 4.406 17.750999 8.546
486 1 1 0.0 4.406 12.663 12.118
487 1 1 0.0 2.178 16.465 12.118
488 1 1 0.0 2.979 13.487 7.219
489 1 1 0.0 3.606 17.289 7.219
490 1 1 0.0 3.606 13.125 10.79
491 1 1 0.0 2.979 16.927 10.79
492 1 1 0.0 1.408 16.951 14.135
493 1 1 0.0 5.177 13.149 14.135
494 1 1 0.0 2.214 15.555 14.135
495 1 1 0.0 5.779 16.917999 14.135
496 1 1 0.0 2.214 14.86 10.563
497 1 1 0.0 5.779 13.497 10.563
498 1 1 0.0 5.177 17.264999 10.563
499 1 1 0.0 0.806 17.299 10.563
500 1 2 0.0 2.151 13.965 7.541
501 1 2 0.0 0.0 17.691 7.541
502 1 2 0.0 4.434 17.767 7.541
503 1 2 0.0 4.434 12.647 11.112
504 1 2 0.0 2.151 16.448999 11.112
505 1 2 0.0 4.35 12.696 13.783
506 1 2 0.0 2.235 16.497 13.783
507 1 2 0.0 2.235 13.917 10.211
508 1 2 0.0 0.0 17.788 10.211
509 1 2 0.0 4.35 17.719 10.211
510 1 1 0.0 8.763 10.148 8.546
511 1 1 0.0 6.585 13.921 8.546
512 1 1 0.0 10.991 13.949 8.546
513 1 1 0.0 10.991 8.861 12.118
514 1 1 0.0 6.585 16.493 12.118
515 1 1 0.0 8.763 12.663 12.118
516 1 1 0.0 9.564 9.686 7.219
517 1 1 0.0 6.585 14.845 7.219
518 1 1 0.0 10.191 13.487 7.219
519 1 1 0.0 10.191 9.323 10.79
520 1 1 0.0 6.585 15.569 10.79
521 1 1 0.0 9.564 13.125 10.79
522 1 1 0.0 10.955 15.555 14.135
523 1 1 0.0 7.391 16.917999 14.135
524 1 1 0.0 7.993 13.149 14.135
525 1 1 0.0 11.762 9.348 14.135
526 1 1 0.0 8.799 11.753 14.135
527 1 1 0.0 12.363 13.116 14.135
528 1 1 0.0 8.799 11.058 10.563
529 1 1 0.0 12.363 9.695 10.563
530 1 1 0.0 11.762 13.463 10.563
531 1 1 0.0 7.993 17.264999 10.563
532 1 1 0.0 10.955 14.86 10.563
533 1 1 0.0 7.391 13.497 10.563
534 1 2 0.0 8.736 10.164 7.541
535 1 2 0.0 6.585 13.889 7.541
536 1 2 0.0 11.019 13.965 7.541
537 1 2 0.0 11.019 8.845 11.112
538 1 2 0.0 6.585 16.525 11.112
539 1 2 0.0 8.736 12.647 11.112
540 1 2 0.0 10.935 8.894 13.783
541 1 2 0.0 6.585 16.427999 13.783
542 1 2 0.0 8.82 12.696 13.783
543 1 2 0.0 8.82 10.115 10.211
544 1 2 0.0 6.585 13.986 10.211
545 1 2 0.0 10.935 13.917 10.211
546 1 1 0.0 15.348 6.346 8.546
547 1 1 0.0 13.17 10.119 8.546
548 1 1 0.0 13.17 12.692 12.118
549 1 1 0.0 15.348 8.861 12.118
550 1 1 0.0 16.148001 5.884 7.219
551 1 1 0.0 13.17 11.043 7.219
552 1 1 0.0 13.17 11.768 10.79
553 1 1 0.0 16.148001 9.323 10.79
554 1 1 0.0 13.976 13.116 14.135
555 1 1 0.0 14.578 9.348 14.135
556 1 1 0.0 15.384 7.951 14.135
557 1 1 0.0 15.384 7.256 10.563
558 1 1 0.0 14.578 13.463 10.563
559 1 1 0.0 13.976 9.695 10.563
560 1 2 0.0 15.321 6.362 7.541
561 1 2 0.0 13.17 10.087 7.541
562 1 2 0.0 13.17 12.723 11.112
563 1 2 0.0 15.321 8.845 11.112
564 1 2 0.0 13.17 12.627 13.783
565 1 2 0.0 15.405 8.894 13.783
566 1 2 0.0 15.405 6.313 10.211
567 1 2 0.0 13.17 10.184 10.211
568 1 1 0.0 8.763 17.750999 8.546
569 1 1 0.0 10.991 16.465 12.118
570 1 1 0.0 9.564 17.289 7.219
571 1 1 0.0 10.191 16.927 10.79
572 1 1 0.0 11.762 16.951 14.135
573 1 1 0.0 12.363 17.299 10.563
574 1 2 0.0 8.736 17.767 7.541
575 1 2 0.0 11.019 16.448999 11.112
576 1 2 0.0 10.935 16.497 13.783
577 1 2 0.0 8.82 17.719 10.211
578 1 1 0.0 15.348 13.949 8.546
579 1 1 0.0 13.17 17.723 8.546
580 1 1 0.0 15.348 16.465 12.118
581 1 1 0.0 16.148001 13.487 7.219
582 1 1 0.0 16.148001 16.927 10.79
583 1 1 0.0 14.578 16.951 14.135
584 1 1 0.0 15.384 15.555 14.135
585 1 1 0.0 15.384 14.86 10.563
586 1 1 0.0 13.976 17.299 10.563
587 1 2 0.0 15.321 13.965 7.541
588 1 2 0.0 13.17 17.691 7.541
589 1 2 0.0 15.321 16.448999 11.112
590 1 2 0.0 15.405 16.497 13.783
591 1 2 0.0 15.405 13.917 10.211
592 1 2 0.0 13.17 17.788 10.211
593 1 1 0.0 -2.178 -1.258 15.689
594 1 1 0.0 -2.979 -1.72 14.362
595 1 1 0.0 -1.408 -1.744 17.705999
596 1 1 0.0 -2.214 -0.347 17.705999
597 1 2 0.0 -2.151 -1.242 14.683
598 1 2 0.0 -2.235 -1.29 17.354
599 1 1 0.0 1.408 -1.744 17.705999
600 1 1 0.0 -2.178 6.346 15.689
601 1 1 0.0 -2.178 1.258 19.26
602 1 1 0.0 -2.979 5.884 14.362
603 1 1 0.0 -2.979 1.72 17.933001
604 1 1 0.0 -0.806 2.091 17.705999
605 1 1 0.0 -1.408 5.86 17.705999
606 1 1 0.0 -2.214 7.256 17.705999
607 1 2 0.0 -2.151 6.362 14.683
608 1 2 0.0 -2.151 1.242 18.254999
609 1 2 0.0 -2.235 6.313 17.354
610 1 1 0.0 2.178 -1.258 15.689
611 1 1 0.0 0.0 2.515 15.689
612 1 1 0.0 4.406 2.544 15.689
613 1 1 0.0 0.0 5.088 19.26
614 1 1 0.0 2.178 1.258 19.26
615 1 1 0.0 2.979 -1.72 14.362
616 1 1 0.0 0.0 3.439 14.362
617 1 1 0.0 3.606 2.082 14.362
618 1 1 0.0 0.0 4.164 17.933001
619 1 1 0.0 2.979 1.72 17.933001
620 1 1 0.0 2.214 -0.347 17.705999
621 1 1 0.0 5.779 -1.71 17.705999
622 1 1 0.0 5.177 2.058 17.705999
623 1 1 0.0 1.408 5.86 17.705999
624 1 1 0.0 4.37 3.454 17.705999
625 1 1 0.0 0.806 2.091 17.705999
626 1 2 0.0 2.151 -1.242 14.683
627 1 2 0.0 0.0 2.484 14.683
628 1 2 0.0 4.434 2.56 14.683
629 1 2 0.0 0.0 5.12 18.254999
630 1 2 0.0 2.151 1.242 18.254999
631 1 2 0.0 2.235 -1.29 17.354
632 1 2 0.0 0.0 2.581 17.354
633 1 2 0.0 4.35 2.511 17.354
634 1 1 0.0 6.585 -1.286 15.689
635 1 1 0.0 10.991 -1.258 15.689
636 1 1 0.0 6.585 1.286 19.26
637 1 1 0.0 6.585 -0.362 14.362
638 1 1 0.0 10.191 -1.72 14.362
639 1 1 0.0 6.585 0.362 17.933001
640 1 1 0.0 11.762 -1.744 17.705999
641 1 1 0.0 7.993 2.058 17.705999
642 1 1 0.0 10.955 -0.347 17.705999
643 1 1 0.0 7.391 -1.71 17.705999
644 1 2 0.0 6.585 -1.318 14.683
645 1 2 0.0 11.019 -1.242 14.683
646 1 2 0.0 6.585 1.318 18.254999
647 1 2 0.0 6.585 -1.221 17.354
648 1 2 0.0 10.935 -1.29 17.354
649 1 1 0.0 14.578 -1.744 17.705999
650 1 1 0.0 -2.178 13.949 15.689
651 1 1 0.0 -2.178 8.861 19.26
652 1 1 0.0 -2.979 13.487 14.362
653 1 1 0.0 -2.979 9.323 17.933001
654 1 1 0.0 -0.806 9.695 17.705999
655 1 1 0.0 -1.408 13.463 17.705999
656 1 1 0.0 -2.214 14.86 17.705999
657 1 2 0.0 -2.151 13.965 14.683
658 1 2 0.0 -2.151 8.845 18.254999
659 1 2 0.0 -2.235 13.917 17.354
660 1 1 0.0 2.178 6.346 15.689
661 1 1 0.0 0.0 10.119 15.689
662 1 1 0.0 4.406 10.148 15.689
663 1 1 0.0 4.406 5.06 19.26
664 1 1 0.0 0.0 12.692 19.26
665 1 1 0.0 2.178 8.861 19.26
666 1 1 0.0 2.979 5.884 14.362
667 1 1 0.0 0.0 11.043 14.362
668 1 1 0.0 3.606 9.686 14.362
669 1 1 0.0 3.606 5.522 17.933001
670 1 1 0.0 0.0 11.768 17.933001
671 1 1 0.0 2.979 9.323 17.933001
672 1 1 0.0 2.214 7.256 17.705999
673 1 1 0.0 5.779 5.893 17.705999
674 1 1 0.0 5.177 9.661 17.705999
675 1 1 0.0 1.408 13.463 17.705999
676 1 1 0.0 4.37 11.058 17.705999
677 1 1 0.0 0.806 9.695 17.705999
678 1 2 0.0 2.151 6.362 14.683
679 1 2 0.0 0.0 10.087 14.683
680 1 2 0.0 4.434 10.164 14.683
681 1 2 0.0 4.434 5.044 18.254999
682 1 2 0.0 0.0 12.723 18.254999
683 1 2 0.0 2.151 8.845 18.254999
684 1 2 0.0 2.235 6.313 17.354
685 1 2 0.0 0.0 10.184 17.354
686 1 2 0.0 4.35 10.115 17.354
687 1 1 0.0 8.763 2.544 15.689
688 1 1 0.0 6.585 6.317 15.689
689 1 1 0.0 10.991 6.346 15.689
690 1 1 0.0 10.991 1.258 19.26
691 1 1 0.0 6.585 8.89 19.26
692 1 1 0.0 8.763 5.06 19.26
693 1 1 0.0 9.564 2.082 14.362
694 1 1 0.0 6.585 7.241 14.362
695 1 1 0.0 10.191 5.884 14.362
696 1 1 0.0 10.191 1.72 17.933001
697 1 1 0.0 6.585 7.966 17.933001
698 1 1 0.0 9.564 5.522 17.933001
699 1 1 0.0 8.799 3.454 17.705999
700 1 1 0.0 12.363 2.091 17.705999
701 1 1 0.0 11.762 5.86 17.705999
702 1 1 0.0 7.993 9.661 17.705999
703 1 1 0.0 10.955 7.256 17.705999
704 1 1 0.0 7.391 5.893 17.705999
705 1 2 0.0 8.736 2.56 14.683
706 1 2 0.0 6.585 6.285 14.683
707 1 2 0.0 11.019 6.362 14.683
708 1 2 0.0 11.019 1.242 18.254999
709 1 2 0.0 6.585 8.922 18.254999
710 1 2 0.0 8.736 5.044 18.254999
711 1 2 0.0 8.82 2.511 17.354
712 1 2 0.0 6.585 6.382 17.354
713 1 2 0.0 10.935 6.313 17.354
714 1 1 0.0 15.348 -1.258 15.689
715 1 1 0.0 13.17 2.515 15.689
716 1 1 0.0 13.17 5.088 19.26
717 1 1 0.0 15.348 1.258 19.26
718 1 1 0.0 16.148001 -1.72 14.362
719 1 1 0.0 13.17 3.439 14.362
720 1 1 0.0 13.17 4.164 17.933001
721 1 1 0.0 16.148001 1.72 17.933001
722 1 1 0.0 15.384 -0.347 17.705999
723 1 1 0.0 14.578 5.86 17.705999
724 1 1 0.0 13.976 2.091 17.705999
725 1 2 0.0 15.321 -1.242 14.683
726 1 2 0.0 13.17 2.484 14.683
727 1 2 0.0 13.17 5.12 18.254999
728 1 2 0.0 15.321 1.242 18.254999
729 1 2 0.0 15.405 -1.29 17.354
730 1 2 0.0 13.17 2.581 17.354
731 1 1 0.0 -2.178 16.465 19.26
732 1 1 0.0 -2.979 16.927 17.933001
733 1 1 0.0 -0.806 17.299 17.705999
734 1 2 0.0 -2.151 16.448999 18.254999
735 1 1 0.0 2.178 13.949 15.689
736 1 1 0.0 0.0 17.723 15.689
737 1 1 0.0 4.406 17.750999 15.689
738 1 1 0.0 4.406 12.663 19.26
739 1 1 0.0 2.178 16.465 19.26
740 1 1 0.0 2.979 13.487 14.362
741 1 1 0.0 3.606 17.289 14.362
742 1 1 0.0 3.606 13.125 17.933001
743 1 1 0.0 2.979 16.927 17.933001
744 1 1 0.0 2.214 14.86 17.705999
745 1 1 0.0 5.779 13.497 17.705999
746 1 1 0.0 5.177 17.264999 17.705999
747 1 1 0.0 0.806 17.299 17.705999
748 1 2 0.0 2.151 13.965 14.683
749 1 2 0.0 0.0 17.691 14.683
750 1 2 0.0 4.434 17.767 14.683
751 1 2 0.0 4.434 12.647 18.254999
752 1 2 0.0 2.151 16.448999 18.254999
753 1 2 0.0 2.235 13.917 17.354
754 1 2 0.0 0.0 17.788 17.354
755 1 2 0.0 4.35 17.719 17.354
756 1 1 0.0 8.763 10.148 15.689
757 1 1 0.0 6.585 13.921 15.689
758 1 1 0.0 10.991 13.949 15.689
759 1 1 0.0 10.991 8.861 19.26
760 1 1 0.0 6.585 16.493 19.26
761 1 1 0.0 8.763 12.663 19.26
762 1 1 0.0 9.564 9.686 14.362
763 1 1 0.0 6.585 14.845 14.362
764 1 1 0.0 10.191 13.487 14.362
765 1 1 0.0 10.191 9.323 17.933001
766 1 1 0.0 6.585 15.569 17.933001
767 1 1 0.0 9.564 13.125 17.933001
768 1 1 0.0 8.799 11.058 17.705999
769 1 1 0.0 12.363 9.695 17.705999
770 1 1 0.0 11.762 13.463 17.705999
771 1 1 0.0 7.993 17.264999 17.705999
772 1 1 0.0 10.955 14.86 17.705999
773 1 1 0.0 7.391 13.497 17.705999
774 1 2 0.0 8.736 10.164 14.683
775 1 2 0.0 6.585 13.889 14.683
776 1 2 0.0 11.019 13.965 14.683
777 1 2 0.0 11.019 8.845 18.254999
778 1 2 0.0 6.585 16.525 18.254999
779 1 2 0.0 8.736 12.647 18.254999
780 1 2 0.0 8.82 10.115 17.354
781 1 2 0.0 6.585 13.986 17.354
782 1 2 0.0 10.935 13.917 17.354
783 1 1 0.0 15.348 6.346 15.689
784 1 1 0.0 13.17 10.119 15.689
785 1 1 0.0 13.17 12.692 19.26
786 1 1 0.0 15.348 8.861 19.26
787 1 1 0.0 16.148001 5.884 14.362
788 1 1 0.0 13.17 11.043 14.362
789 1 1 0.0 13.17 11.768 17.933001
790 1 1 0.0 16.148001 9.323 17.933001
791 1 1 0.0 15.384 7.256 17.705999
792 1 1 0.0 14.578 13.463 17.705999
793 1 1 0.0 13.976 9.695 17.705999
794 1 2 0.0 15.321 6.362 14.683
795 1 2 0.0 13.17 10.087 14.683
796 1 2 0.0 13.17 12.723 18.254999
797 1 2 0.0 15.321 8.845 18.254999
798 1 2 0.0 15.405 6.313 17.354
799 1 2 0.0 13.17 10.184 17.354
800 1 1 0.0 8.763 17.750999 15.689
801 1 1 0.0 10.991 16.465 19.26
802 1 1 0.0 9.564 17.289 14.362
803 1 1 0.0 10.191 16.927 17.933001
804 1 1 0.0 12.363 17.299 17.705999
805 1 2 0.0 8.736 17.767 14.683
806 1 2 0.0 11.019 16.448999 18.254999
807 1 2 0.0 8.82 17.719 17.354
808 1 1 0.0 15.348 13.949 15.689
809 1 1 0.0 13.17 17.723 15.689
810 1 1 0.0 15.348 16.465 19.26
811 1 1 0.0 16.148001 13.487 14.362
812 1 1 0.0 16.148001 16.927 17.933001
813 1 1 0.0 15.384 14.86 17.705999
814 1 1 0.0 13.976 17.299 17.705999
815 1 2 0.0 15.321 13.965 14.683
816 1 2 0.0 13.17 17.691 14.683
817 1 2 0.0 15.321 16.448999 18.254999
818 1 2 0.0 15.405 13.917 17.354
819 1 2 0.0 13.17 17.788 17.354

Bonds

1 1 1 22
2 1 2 23
3 1 3 24
4 1 4 25
5 1 5 26
6 1 6 22
7 1 7 23
8 1 8 24
9 1 9 25
10 1 10 26
11 1 11 117
12 1 12 27
13 1 13 28
14 1 14 28
15 1 15 69
16 1 16 29
17 1 17 70
18 1 18 31
19 1 19 120
20 1 20 31
21 1 21 30
22 1 27 46
23 1 29 39
24 1 30 47
25 1 32 37
26 1 33 37
27 1 34 52
28 1 35 38
29 1 36 38
30 1 40 50
31 1 41 51
32 1 42 50
33 1 43 51
34 1 44 85
35 1 45 52
36 1 48 53
37 1 49 53
38 1 54 66
39 1 55 67
40 1 56 68
41 1 57 66
42 1 58 67
43 1 59 68
44 1 60 153
45 1 61 69
46 1 62 71
47 1 63 156
48 1 64 71
49 1 65 70
50 1 72 179
51 1 73 83
52 1 74 84
53 1 75 83
54 1 76 84
55 1 77 186
56 1 78 85
57 1 79 118
58 1 80 121
59 1 81 86
60 1 82 86
61 1 87 111
62 1 88 112
63 1 89 113
64 1 90 114
65 1 91 115
66 1 92 116
67 1 93 111
68 1 94 112
69 1 95 113
70 1 96 114
71 1 97 115
72 1 98 116
73 1 99 209
74 1 100 118
75 1 101 119
76 1 102 117
77 1 103 119
78 1 104 154
79 1 105 120
80 1 106 157
81 1 107 122
82 1 108 211
83 1 109 122
84 1 110 121
85 1 123 147
86 1 124 148
87 1 125 149
88 1 126 150
89 1 127 151
90 1 128 152
91 1 129 147
92 1 130 148
93 1 131 149
94 1 132 150
95 1 133 151
96 1 134 152
97 1 135 244
98 1 136 154
99 1 137 155
100 1 138 153
101 1 139 155
102 1 140 177
103 1 141 156
104 1 142 180
105 1 143 158
106 1 144 247
107 1 145 158
108 1 146 157
109 1 159 173
110 1 160 174
111 1 161 175
112 1 162 176
113 1 163 173
114 1 164 174
115 1 165 175
116 1 166 176
117 1 167 177
118 1 168 178
119 1 169 178
120 1 170 179
121 1 171 270
122 1 172 180
123 1 181 185
124 1 182 185
125 1 183 186
126 1 184 212
127 1 187 204
128 1 188 205
129 1 189 206
130 1 190 207
131 1 191 208
132 1 192 204
133 1 193 206
134 1 194 207
135 1 195 208
136 1 196 210
137 1 197 209
138 1 198 210
139 1 199 245
140 1 200 211
141 1 201 248
142 1 202 213
143 1 203 212
144 1 214 238
145 1 215 239
146 1 216 240
147 1 217 241
148 1 218 242
149 1 219 243
150 1 220 238
151 1 221 239
152 1 222 240
153 1 223 241
154 1 224 242
155 1 225 243
156 1 226 280
157 1 227 245
158 1 228 246
159 1 229 244
160 1 230 246
161 1 231 268
162 1 232 247
163 1 233 271
164 1 234 249
165 1 235 281
166 1 236 249
167 1 237 248
168 1 250 264
169 1 251 265
170 1 252 266
171 1 253 267
172 1 254 264
173 1 255 265
174 1 256 266
175 1 257 267
176 1 258 268
177 1 259 269
178 1 260 269
179 1 261 270
180 1 262 295
181 1 263 271
182 1 272 278
183 1 273 279
184 1 274 278
185 1 275 279
186 1 276 280
187 1 277 296
188 1 282 291
189 1 283 292
190 1 284 293
191 1 285 291
192 1 286 293
193 1 287 294
194 1 288 294
195 1 289 295
196 1 290 296
197 1 297 302
198 1 298 302
199 1 299 317
200 1 300 303
201 1 301 303
202 1 304 347
203 1 305 315
204 1 306 316
205 1 307 315
206 1 308 316
207 1 309 381
208 1 310 317
209 1 311 345
210 1 312 348
211 1 313 318
212 1 314 318
213 1 319 340
214 1 320 341
215 1 321 342
216 1 322 343
217 1 323 344
218 1 324 340
219 1 325 341
220 1 326 342
221 1 327 343
222 1 328 344
223 1 329 413
224 1 330 345
225 1 331 346
226 1 332 346
227 1 333 365
228 1 334 347
229 1 335 366
230 1 336 349
231 1 337 416
232 1 338 349
233 1 339 348
234 1 350 362
235 1 351 363
236 1 352 364
237 1 353 362
238 1 354 363
239 1 355 364
240 1 356 449
241 1 357 365
242 1 358 367
243 1 359 452
244 1 360 367
245 1 361 366
246 1 368 475
247 1 369 379
248 1 370 380
249 1 371 379
250 1 372 380
251 1 373 482
252 1 374 381
253 1 375 414
254 1 376 417
255 1 377 382
256 1 378 382
257 1 383 407
258 1 384 408
259 1 385 409
260 1 386 410
261 1 387 411
262 1 388 412
263 1 389 407
264 1 390 408
265 1 391 409
266 1 392 410
267 1 393 411
268 1 394 412
269 1 395 505
270 1 396 414
271 1 397 415
272 1 398 413
273 1 399 415
274 1 400 450
275 1 401 416
276 1 402 453
277 1 403 418
278 1 404 507
279 1 405 418
280 1 406 417
281 1 419 443
282 1 420 444
283 1 421 445
284 1 422 446
285 1 423 447
286 1 424 448
287 1 425 443
288 1 426 444
289 1 427 445
290 1 428 446
291 1 429 447
292 1 430 448
293 1 431 540
294 1 432 450
295 1 433 451
296 1 434 449
297 1 435 451
298 1 436 473
299 1 437 452
300 1 438 476
301 1 439 454
302 1 440 543
303 1 441 454