ITEM: TIMESTEP
25
ITEM: NUMBER OF ATOMS
375
ITEM: BOX BOUNDS pp pp pp
-4.8506923947133629e-03 1.5504850692394715e+01
-4.8506923947133629e-03 1.5504850692394715e+01
-4.8506923947133629e-03 1.5504850692394715e+01
ITEM: ATOMS id type xs ys zs
3 1 0.0540956 0.0736262 0.13195
78 1 0.0906143 0.0459709 0.312711
18 1 0.0788151 0.244655 0.101997
93 1 0.136491 0.248243 0.306814
33 1 0.104257 0.435209 0.102848
108 1 0.0788052 0.484084 0.352312
6 1 0.296025 0.0413928 0.125889
81 1 0.31398 0.0842384 0.358267
21 1 0.276257 0.248507 0.112443
96 1 0.302008 0.267258 0.35329
36 1 0.280481 0.438648 0.11542
111 1 0.281911 0.474447 0.348499
1 2 0.093443 0.0988225 0.0916262
76 2 0.0970553 0.105472 0.297634
151 2 0.10246 0.0988213 0.489577
16 2 0.103213 0.301272 0.0991133
91 2 0.104525 0.297104 0.286818
166 2 0.104109 0.302084 0.496533
4 2 0.298236 0.098909 0.103615
79 2 0.303613 0.103072 0.300415
154 2 0.30286 0.0988172 0.48704
19 2 0.298441 0.302314 0.0919046
94 2 0.29645 0.296635 0.299298
169 2 0.30382 0.304147 0.492637
2 1 0.142758 0.113945 0.125514
77 1 0.0830137 0.136139 0.349321
17 1 0.10517 0.320285 0.157797
92 1 0.0998125 0.333787 0.336227
5 1 0.300898 0.134822 0.153738
80 1 0.279173 0.159403 0.306625
20 1 0.319439 0.330723 0.142512
95 1 0.312284 0.354979 0.311726
31 2 0.103757 0.495617 0.0902101
172 2 0.498383 0.304933 0.491919
34 2 0.301549 0.492905 0.0948891
109 2 0.306419 0.495558 0.295937
9 1 0.475111 0.0601785 0.131157
84 1 0.479551 0.0846859 0.340687
24 1 0.465748 0.271028 0.134016
99 1 0.468871 0.274594 0.339253
39 1 0.462197 0.455283 0.127656
112 2 0.49796 0.497063 0.295071
37 2 0.49972 0.494079 0.0977221
114 1 0.486398 0.48411 0.354296
7 2 0.494251 0.0996428 0.0877358
82 2 0.499584 0.101514 0.28479
184 2 0.302581 0.498741 0.494407
153 1 0.105051 0.0510736 0.528597
228 1 0.0730315 0.0510351 0.70371
303 1 0.0696133 0.0646807 0.939269
168 1 0.109983 0.243352 0.514564
243 1 0.12209 0.251449 0.705629
318 1 0.0754594 0.254726 0.918928
183 1 0.106701 0.455798 0.534818
258 1 0.0765714 0.469368 0.751224
333 1 0.0812421 0.45267 0.93656
156 1 0.283777 0.0524767 0.523061
231 1 0.300429 0.0431166 0.700815
306 1 0.338752 0.0793951 0.928632
171 1 0.275454 0.250743 0.504985
246 1 0.327789 0.252107 0.724507
321 1 0.324165 0.267074 0.953392
186 1 0.33703 0.468796 0.535949
261 1 0.276465 0.477515 0.752558
336 1 0.274276 0.471231 0.942198
226 2 0.0992136 0.106702 0.698729
301 2 0.102257 0.101255 0.901775
241 2 0.0945721 0.303249 0.686427
316 2 0.101744 0.302034 0.889259
229 2 0.299431 0.104496 0.694431
304 2 0.296266 0.102128 0.890067
244 2 0.300772 0.298075 0.693426
319 2 0.302515 0.294361 0.902443
152 1 0.0902217 0.147504 0.525485
227 1 0.115153 0.121529 0.75648
302 1 0.130985 0.140586 0.939682
167 1 0.088085 0.332481 0.547801
242 1 0.101154 0.342628 0.733491
317 1 0.122486 0.338888 0.934211
155 1 0.332787 0.136863 0.525329
230 1 0.281049 0.125482 0.749484
305 1 0.269142 0.147496 0.921929
170 1 0.276227 0.345217 0.529528
245 1 0.294587 0.343302 0.734964
320 1 0.30253 0.354584 0.915945
159 1 0.495474 0.0964704 0.552925
234 1 0.499515 0.0681422 0.752841
174 1 0.464112 0.280537 0.537079
324 1 0.4782 0.270007 0.94917
339 1 0.472406 0.449672 0.929542
307 2 0.498871 0.0947655 0.888295
247 2 0.496912 0.296279 0.689626
322 2 0.498154 0.295265 0.896511
233 1 0.4702 0.147657 0.704405
308 1 0.484141 0.15453 0.892804
173 1 0.496636 0.365747 0.502298
248 1 0.485915 0.340404 0.731354
331 2 0.0984904 0.495396 0.895498
259 2 0.295873 0.499129 0.698104
337 2 0.498901 0.495313 0.897543
48 1 0.131978 0.65976 0.121798
123 1 0.0488125 0.670419 0.319289
63 1 0.107172 0.855115 0.13815
138 1 0.0701107 0.872353 0.33865
51 1 0.327322 0.657299 0.121267
126 1 0.282437 0.654688 0.335838
66 1 0.290602 0.873161 0.148995
141 1 0.291831 0.850286 0.327645
140 1 0.315307 0.944877 0.322188
65 1 0.341023 0.943811 0.104338
181 2 0.104578 0.503476 0.495683
46 2 0.0999936 0.70015 0.0878152
121 2 0.0968781 0.698847 0.293009
196 2 0.0984492 0.695126 0.495709
61 2 0.096798 0.895116 0.0923092
136 2 0.103771 0.907054 0.300284
211 2 0.0966165 0.892256 0.492222
125 1 0.283718 0.751096 0.3206
50 1 0.270178 0.735946 0.130066
128 1 0.485924 0.759649 0.301357
49 2 0.297989 0.700275 0.0880747
124 2 0.299294 0.697355 0.294552
199 2 0.29465 0.70004 0.492759
64 2 0.297008 0.901653 0.0946238
139 2 0.298108 0.896781 0.287545
214 2 0.293884 0.893281 0.490489
32 1 0.0832499 0.522101 0.142048
107 1 0.145336 0.54056 0.308582
47 1 0.0881835 0.746877 0.126366
122 1 0.114442 0.741064 0.334463
62 1 0.126324 0.946477 0.109612
137 1 0.147324 0.93202 0.336185
35 1 0.292323 0.531863 0.14186
110 1 0.336248 0.547035 0.312352
129 1 0.481503 0.673359 0.346775
67 2 0.494196 0.903716 0.091051
38 1 0.496574 0.546613 0.129961
53 1 0.460158 0.74003 0.126504
106 2 0.0993478 0.501159 0.296675
198 1 0.122642 0.687214 0.551933
273 1 0.048585 0.671311 0.719717
348 1 0.0805559 0.664867 0.942538
213 1 0.128382 0.874036 0.541901
288 1 0.0722362 0.847397 0.708465
363 1 0.0954454 0.855525 0.944684
201 1 0.341829 0.661581 0.502969
276 1 0.284562 0.662562 0.745199
351 1 0.325112 0.670365 0.949275
216 1 0.275796 0.864332 0.541908
291 1 0.291116 0.846782 0.726731
366 1 0.33048 0.892682 0.954423
256 2 0.0952387 0.501713 0.702086
368 1 0.475851 0.952437 0.909592
271 2 0.0979296 0.700137 0.696409
346 2 0.0943978 0.702001 0.895224
286 2 0.101688 0.897224 0.687041
361 2 0.104003 0.897743 0.900485
293 1 0.497168 0.960183 0.696171
334 2 0.293688 0.500792 0.891617
274 2 0.304876 0.698151 0.699048
349 2 0.299839 0.694912 0.898601
289 2 0.304209 0.894542 0.689898
364 2 0.306588 0.900135 0.898008
182 1 0.115046 0.55298 0.531023
257 1 0.139969 0.538312 0.723737
332 1 0.12874 0.537599 0.92886
197 1 0.067174 0.748187 0.499648
272 1 0.134543 0.709968 0.74511
347 1 0.0947571 0.758686 0.919634
212 1 0.0677819 0.943737 0.510317
287 1 0.105467 0.93506 0.735655
362 1 0.107937 0.951339 0.930834
185 1 0.256474 0.523242 0.527314
260 1 0.344432 0.534613 0.711959
335 1 0.306017 0.558091 0.910956
200 1 0.296311 0.7395 0.540186
275 1 0.310666 0.754235 0.724152
350 1 0.273838 0.747367 0.918133
215 1 0.321065 0.94493 0.510556
290 1 0.307459 0.943009 0.72797
365 1 0.251485 0.926131 0.907851
294 1 0.489483 0.879936 0.751212
262 2 0.496044 0.503556 0.6963
353 1 0.467362 0.73727 0.935579
277 2 0.498658 0.697503 0.695339
352 2 0.497144 0.703012 0.893762
292 2 0.496885 0.898556 0.692838
188 1 0.466999 0.548245 0.518424
263 1 0.479579 0.535868 0.746239
203 1 0.482644 0.740677 0.535211
278 1 0.471118 0.744619 0.724161
26 1 0.674701 0.321048 0.148287
43 2 0.899886 0.496395 0.0888299
115 2 0.696416 0.494184 0.290555
86 1 0.701393 0.140497 0.348566
104 1 0.934734 0.335753 0.32565
29 1 0.899659 0.355882 0.120647
12 1 0.708566 0.0403377 0.0917571
87 1 0.707233 0.0452752 0.327898
27 1 0.723332 0.245121 0.110893
102 1 0.72502 0.257702 0.319817
42 1 0.69198 0.453893 0.133657
117 1 0.721927 0.445536 0.318693
15 1 0.904184 0.0802979 0.160963
90 1 0.874685 0.061589 0.339505
30 1 0.863445 0.265673 0.129553
105 1 0.874572 0.260247 0.340056
45 1 0.881895 0.454568 0.130494
120 1 0.865595 0.452029 0.294665
89 1 0.923263 0.146252 0.338743
14 1 0.934208 0.15256 0.102612
157 2 0.505688 0.100842 0.492216
22 2 0.501024 0.302024 0.093967
97 2 0.501171 0.294246 0.290471
101 1 0.661545 0.328565 0.341668
10 2 0.705483 0.101977 0.0912988
85 2 0.696118 0.100227 0.302093
160 2 0.696636 0.0955191 0.499998
25 2 0.706068 0.303019 0.0982861
100 2 0.695725 0.306222 0.29539
175 2 0.700998 0.30001 0.490435
13 2 0.902887 0.0993815 0.102284
88 2 0.902752 0.101415 0.30162
193 2 0.899201 0.499934 0.492834
28 2 0.902534 0.299461 0.0957958
103 2 0.895803 0.298044 0.296127
178 2 0.900906 0.302195 0.497185
8 1 0.519492 0.146303 0.119277
83 1 0.536979 0.149423 0.295531
23 1 0.529011 0.345132 0.128137
98 1 0.522862 0.34946 0.3075
11 1 0.686121 0.116923 0.147963
190 2 0.705325 0.498083 0.495929
158 1 0.537794 0.153141 0.485653
329 1 0.919483 0.345177 0.927604
254 1 0.92109 0.3316 0.752399
309 1 0.529611 0.0824332 0.940372
179 1 0.891135 0.351875 0.532478
249 1 0.541129 0.261566 0.7151
314 1 0.892314 0.141857 0.946094
189 1 0.517911 0.469477 0.545474
264 1 0.51249 0.448306 0.718347
239 1 0.889273 0.130414 0.745729
162 1 0.65855 0.0602216 0.533354
237 1 0.705816 0.0377238 0.708171
312 1 0.674194 0.0520951 0.91741
177 1 0.668155 0.269011 0.5325
252 1 0.700816 0.239466 0.713227
327 1 0.663228 0.259851 0.933545
192 1 0.678676 0.462552 0.538783
267 1 0.700542 0.443573 0.699473
342 1 0.663122 0.465894 0.931399
165 1 0.874423 0.0575054 0.533038
240 1 0.928351 0.0523945 0.701979
315 1 0.866684 0.0563159 0.906672
180 1 0.933815 0.264088 0.532877
255 1 0.895402 0.24479 0.715895
330 1 0.901998 0.249471 0.91966
195 1 0.892031 0.480702 0.551039
270 1 0.902183 0.45913 0.737296
345 1 0.858289 0.46153 0.911437
232 2 0.501592 0.0949947 0.69731
164 1 0.866658 0.153059 0.514668
326 1 0.737306 0.323343 0.93048
251 1 0.732763 0.327439 0.74095
235 2 0.706667 0.0986375 0.698277
310 2 0.706503 0.0950506 0.887077
250 2 0.693802 0.299733 0.701918
325 2 0.6944 0.296658 0.895039
238 2 0.897072 0.104313 0.690349
313 2 0.903151 0.105271 0.897584
253 2 0.898385 0.304772 0.701666
328 2 0.892856 0.303308 0.8909
268 2 0.900587 0.49569 0.687597
176 1 0.738957 0.335616 0.523609
311 1 0.725112 0.134267 0.93095
236 1 0.697943 0.123503 0.754087
161 1 0.72001 0.13571 0.540587
323 1 0.540838 0.33619 0.914181
163 2 0.900687 0.103371 0.501169
54 1 0.534988 0.678646 0.139175
146 1 0.66072 0.9331 0.321515
69 1 0.508055 0.843575 0.091125
144 1 0.522211 0.872152 0.342997
57 1 0.685253 0.664413 0.134391
132 1 0.716324 0.669438 0.351416
72 1 0.694788 0.854829 0.135642
147 1 0.743575 0.884022 0.337468
60 1 0.904652 0.661653 0.136188
135 1 0.88763 0.640865 0.322777
75 1 0.920554 0.857513 0.119973
150 1 0.885301 0.866707 0.347746
149 1 0.940514 0.941908 0.319031
74 1 0.890849 0.949265 0.135057
187 2 0.501804 0.502524 0.4959
52 2 0.500826 0.705575 0.095392
127 2 0.502877 0.700578 0.295673
202 2 0.500916 0.693695 0.499602
71 1 0.727197 0.946894 0.134212
142 2 0.504369 0.906224 0.294728
217 2 0.500826 0.898866 0.490942
134 1 0.898887 0.734158 0.349197
59 1 0.901883 0.757615 0.118527
41 1 0.701057 0.550441 0.144811
55 2 0.697267 0.703017 0.0877593
130 2 0.702149 0.69662 0.29785
205 2 0.699032 0.691629 0.488055
70 2 0.703517 0.902919 0.0979549
145 2 0.705334 0.901898 0.292444
220 2 0.702963 0.903757 0.495129
119 1 0.902968 0.520492 0.353352
44 1 0.913349 0.546594 0.122117
143 1 0.504487 0.96422 0.315838
58 2 0.906411 0.702908 0.0903178
133 2 0.899725 0.696928 0.299979
208 2 0.903077 0.699173 0.49183
73 2 0.894584 0.905712 0.0914862
148 2 0.905562 0.895919 0.297295
223 2 0.892168 0.904739 0.49855
131 1 0.659877 0.739052 0.31274
113 1 0.532929 0.547885 0.296888
56 1 0.732545 0.747031 0.112805
116 1 0.705009 0.541027 0.329812
68 1 0.508376 0.922934 0.147961
118 2 0.894007 0.506812 0.29384
40 2 0.699389 0.506224 0.101786
194 1 0.948384 0.537167 0.494789
204 1 0.532501 0.656793 0.537677
279 1 0.527625 0.666674 0.740279
354 1 0.506274 0.64881 0.921831
219 1 0.507753 0.858909 0.537467
374 1 0.922771 0.95662 0.929024
369 1 0.517213 0.871442 0.945051
207 1 0.661357 0.674019 0.533658
282 1 0.720064 0.64099 0.712549
357 1 0.699586 0.658267 0.939004
222 1 0.706601 0.857086 0.53535
297 1 0.668614 0.856481 0.673495
372 1 0.665502 0.857635 0.929031
210 1 0.862368 0.660007 0.516691
285 1 0.854994 0.661048 0.723881
360 1 0.889122 0.636187 0.90483
225 1 0.871576 0.856399 0.530928
300 1 0.86162 0.862226 0.690637
375 1 0.901935 0.862167 0.942166
299 1 0.898323 0.935199 0.744079
224 1 0.92497 0.937702 0.539129
359 1 0.905135 0.720982 0.950455
284 1 0.922998 0.727472 0.746049
209 1 0.926336 0.729957 0.540001
367 2 0.500571 0.898626 0.892201
265 2 0.704634 0.505108 0.697071
340 2 0.695739 0.507155 0.899108
280 2 0.702829 0.69798 0.696295
355 2 0.699247 0.696345 0.890433
295 2 0.706 0.902917 0.689462
370 2 0.697051 0.900356 0.897587
281 1 0.698605 0.728682 0.749667
343 2 0.89857 0.506642 0.899134
283 2 0.899203 0.695935 0.698632
358 2 0.897508 0.696427 0.894348
298 2 0.90441 0.906691 0.689679
373 2 0.904949 0.905896 0.898717
344 1 0.926542 0.517541 0.953058
269 1 0.933071 0.545536 0.704006
338 1 0.527903 0.52927 0.940145
206 1 0.728234 0.741205 0.510384
371 1 0.737134 0.923258 0.93855
296 1 0.700329 0.906962 0.750785
218 1 0.512757 0.953998 0.515988
221 1 0.731613 0.950656 0.523214
356 1 0.703314 0.752812 0.91501
191 1 0.735814 0.540978 0.52817
266 1 0.687077 0.523985 0.753147
341 1 0.736077 0.530207 0.939734
ITEM: TIMESTEP
50
ITEM: NUMBER OF ATOMS
375
ITEM: BOX BOUNDS pp pp pp
4.5127862157707810e-03 1.5495487213784230e+01
4.5127862157707810e-03 1.5495487213784230e+01
4.5127862157707810e-03 1.5495487213784230e+01
ITEM: ATOMS id type xs ys zs
3 1 0.0588624 0.12484 0.13738
78 1 0.110989 0.0599529 0.27149
18 1 0.0506393 0.308454 0.084076
93 1 0.170233 0.27991 0.271175
33 1 0.115955 0.432213 0.0574861
184 2 0.307685 0.49989 0.492919
6 1 0.302539 0.084587 0.068712
81 1 0.304994 0.114545 0.369713
21 1 0.246996 0.309792 0.0602498
96 1 0.299755 0.34007 0.355182
36 1 0.284947 0.444101 0.0559172
7 2 0.491999 0.101473 0.0738295
1 2 0.087751 0.10023 0.0886259
76 2 0.0914471 0.10704 0.306391
151 2 0.101575 0.100609 0.487131
16 2 0.10565 0.302541 0.111573
91 2 0.109916 0.293003 0.273922
110 1 0.355751 0.450847 0.285741
4 2 0.288335 0.0963629 0.127674
79 2 0.307461 0.105091 0.308708
154 2 0.306999 0.10238 0.476081
19 2 0.298367 0.303396 0.0939735
94 2 0.29577 0.296087 0.311976
169 2 0.304689 0.30641 0.484612
2 1 0.114324 0.0489711 0.110615
77 1 0.121707 0.100311 0.359834
17 1 0.0922228 0.29125 0.170813
92 1 0.104993 0.33373 0.32012
5 1 0.338393 0.0789721 0.159437
80 1 0.259944 0.137456 0.286083
20 1 0.310931 0.242947 0.0917492
95 1 0.278756 0.326173 0.260766
31 2 0.106318 0.484885 0.0883079
172 2 0.491888 0.306967 0.491313
34 2 0.30412 0.48467 0.0983872
109 2 0.310865 0.489993 0.302174
9 1 0.46557 0.0866471 0.12767
84 1 0.485455 0.15753 0.255062
24 1 0.470494 0.346118 0.120631
99 1 0.461376 0.330665 0.311451
171 1 0.282448 0.248783 0.483364
112 2 0.495915 0.496048 0.303134
37 2 0.49209 0.484397 0.0991566
32 1 0.0894279 0.466832 0.144929
168 1 0.126716 0.256905 0.476212
107 1 0.156008 0.481681 0.284337
35 1 0.279739 0.464308 0.151379
185 1 0.251467 0.47766 0.480172
153 1 0.144175 0.0730569 0.522392
228 1 0.0529847 0.0811827 0.685229
303 1 0.0607541 0.141797 0.926858
260 1 0.331022 0.456663 0.682962
243 1 0.115489 0.24514 0.677518
318 1 0.0690988 0.257316 0.85852
183 1 0.09767 0.502382 0.556919
232 2 0.496765 0.0864322 0.705804
309 1 0.468503 0.108377 0.937711
156 1 0.289525 0.145026 0.517227
231 1 0.285371 0.0572592 0.666708
306 1 0.355273 0.114821 0.884422
322 2 0.500381 0.287036 0.903414
246 1 0.348918 0.263811 0.683926
321 1 0.323493 0.319005 0.969357
247 2 0.497765 0.283602 0.689711
331 2 0.0966692 0.492231 0.896088
259 2 0.292499 0.499044 0.706136
226 2 0.0999677 0.113438 0.70909
301 2 0.103197 0.0997155 0.911207
241 2 0.0935039 0.302328 0.669561
316 2 0.101672 0.301622 0.886681
229 2 0.303176 0.107685 0.69765
304 2 0.294499 0.103752 0.883337
244 2 0.296591 0.296436 0.68775
319 2 0.303641 0.288437 0.919471
152 1 0.0504258 0.0669864 0.495515
227 1 0.100559 0.0979967 0.76891
302 1 0.116648 0.0708496 0.96415
167 1 0.118127 0.292725 0.566719
242 1 0.0866312 0.324393 0.726859
317 1 0.160532 0.288463 0.873288
155 1 0.353254 0.0721887 0.503759
230 1 0.297724 0.0920621 0.757177
305 1 0.26948 0.156611 0.863407
170 1 0.294445 0.325721 0.542397
245 1 0.303509 0.33091 0.738552
320 1 0.307064 0.329717 0.87363
308 1 0.468178 0.118688 0.840541
337 2 0.498369 0.489251 0.908032
174 1 0.442373 0.342537 0.501322
233 1 0.450084 0.102404 0.668616
307 2 0.499897 0.092822 0.886823
257 1 0.106023 0.451966 0.697496
166 2 0.105008 0.30543 0.507697
48 1 0.12941 0.645635 0.0593129
123 1 0.0412905 0.728421 0.273746
63 1 0.0995358 0.903337 0.150416
138 1 0.132521 0.911315 0.368068
51 1 0.327693 0.667446 0.121293
126 1 0.2637 0.684809 0.348177
66 1 0.331651 0.9025 0.152774
141 1 0.290506 0.920248 0.33994
140 1 0.29478 0.943635 0.24516
65 1 0.281751 0.854009 0.08417
181 2 0.107595 0.510281 0.496452
46 2 0.102979 0.697754 0.0793648
121 2 0.0922228 0.699632 0.293601
39 1 0.436295 0.508656 0.0884061
61 2 0.0964547 0.897784 0.0889601
136 2 0.108549 0.919466 0.311714
211 2 0.087464 0.878539 0.491556
125 1 0.287723 0.749636 0.279121
50 1 0.24043 0.705199 0.0987488
128 1 0.455127 0.726771 0.272704
49 2 0.29872 0.701452 0.0786157
124 2 0.296865 0.691033 0.296423
199 2 0.294243 0.697557 0.490014
64 2 0.301731 0.910476 0.0993124
139 2 0.296785 0.895405 0.283721
214 2 0.290652 0.891745 0.487884
188 1 0.458773 0.499322 0.457761
201 1 0.352259 0.695398 0.468879
47 1 0.0465855 0.680451 0.0977364
122 1 0.0723242 0.644345 0.312685
62 1 0.137473 0.853647 0.0753181
137 1 0.124791 0.868693 0.280481
144 1 0.489081 0.929629 0.353041
197 1 0.0575647 0.727505 0.465406
215 1 0.306162 0.834338 0.471133
67 2 0.487834 0.902539 0.0919378
106 2 0.10104 0.503932 0.301675
53 1 0.505221 0.660453 0.131348
52 2 0.494665 0.714262 0.102883
108 1 0.113424 0.539216 0.350856
111 1 0.337596 0.527997 0.342897
212 1 0.0386907 0.913992 0.478085
182 1 0.106679 0.571541 0.488478
198 1 0.141155 0.725621 0.515977
273 1 0.0478546 0.726037 0.667716
348 1 0.0786195 0.719492 0.953566
213 1 0.131765 0.918546 0.507493
288 1 0.0821841 0.882415 0.624557
363 1 0.0959192 0.929556 0.966947
336 1 0.283777 0.525197 0.951456
276 1 0.277969 0.679748 0.75716
351 1 0.287012 0.709143 0.964382
216 1 0.308991 0.896202 0.546714
291 1 0.248445 0.871246 0.691897
366 1 0.287957 0.958791 0.908603
256 2 0.0918826 0.509068 0.716376
368 1 0.451514 0.909813 0.852096
271 2 0.0921202 0.703505 0.704457
346 2 0.0923065 0.701203 0.896162
286 2 0.101909 0.894196 0.681908
361 2 0.114694 0.897301 0.91771
278 1 0.465084 0.742516 0.709332
203 1 0.454927 0.715737 0.542643
274 2 0.307514 0.698353 0.706188
349 2 0.298906 0.688111 0.90752
289 2 0.305223 0.895348 0.688359
364 2 0.307933 0.900636 0.902595
339 1 0.451303 0.524684 0.889423
293 1 0.481593 0.961498 0.690834
332 1 0.148619 0.525508 0.899407
261 1 0.328755 0.536363 0.73945
272 1 0.0877579 0.642199 0.698167
347 1 0.0783714 0.749822 0.860679
258 1 0.108851 0.510391 0.775769
287 1 0.109592 0.838447 0.707405
362 1 0.102346 0.933971 0.869544
263 1 0.502459 0.54454 0.745794
202 2 0.496375 0.682486 0.511121
335 1 0.301835 0.555202 0.860231
200 1 0.290376 0.650213 0.529519
275 1 0.367436 0.69202 0.719835
350 1 0.243367 0.674601 0.884068
292 2 0.499366 0.902401 0.69379
290 1 0.340825 0.855794 0.719744
365 1 0.258431 0.865876 0.915179
352 2 0.49156 0.703485 0.886163
262 2 0.48791 0.503129 0.702312
353 1 0.445345 0.720075 0.923662
219 1 0.497891 0.90955 0.5474
369 1 0.484957 0.937341 0.939685
333 1 0.0514751 0.53295 0.906884
334 2 0.287638 0.504929 0.89322
186 1 0.305197 0.514896 0.552799
196 2 0.091692 0.691318 0.502054
187 2 0.498951 0.503031 0.504548
26 1 0.726093 0.275379 0.162762
43 2 0.899367 0.490329 0.0847794
115 2 0.694749 0.486754 0.282314
86 1 0.68274 0.071311 0.369287
104 1 0.919814 0.255411 0.278374
29 1 0.941748 0.336389 0.0789055
12 1 0.707454 0.0670965 0.0424715
87 1 0.698315 0.058465 0.273681
27 1 0.715814 0.254653 0.0678244
102 1 0.748512 0.317697 0.285289
42 1 0.684794 0.461285 0.0819754
117 1 0.67427 0.428556 0.285614
15 1 0.870975 0.133443 0.152231
90 1 0.881432 0.137933 0.350181
30 1 0.854523 0.319324 0.119514
105 1 0.92884 0.323906 0.347474
173 1 0.527406 0.340219 0.453236
120 1 0.835028 0.505816 0.261214
89 1 0.965492 0.0994972 0.318484
14 1 0.922531 0.139501 0.0694437
157 2 0.520096 0.107836 0.496213
22 2 0.502273 0.300885 0.093042
97 2 0.49962 0.288302 0.287789
101 1 0.679141 0.26591 0.330611
10 2 0.705437 0.106236 0.0902335
85 2 0.692588 0.102354 0.316785
119 1 0.912206 0.460854 0.30084
25 2 0.710745 0.300805 0.108586
100 2 0.687933 0.317272 0.297417
175 2 0.69922 0.295882 0.485193
13 2 0.913078 0.10325 0.118572
88 2 0.904436 0.0978494 0.309179
82 2 0.500271 0.102735 0.279456
28 2 0.904073 0.290621 0.0963143
103 2 0.889584 0.30228 0.304952
113 1 0.53487 0.451817 0.284606
8 1 0.537362 0.140547 0.0890815
83 1 0.559823 0.0949251 0.264977
23 1 0.560707 0.320949 0.0927645
98 1 0.541028 0.32103 0.255675
11 1 0.728023 0.0738567 0.137758
190 2 0.710807 0.492233 0.497304
158 1 0.486399 0.0810855 0.451876
194 1 0.947093 0.459261 0.488996
179 1 0.878934 0.357343 0.49624
162 1 0.64807 0.119642 0.481872
177 1 0.704118 0.354967 0.467817
164 1 0.896677 0.171408 0.500765
329 1 0.948146 0.318468 0.898626
254 1 0.926345 0.28166 0.756211
160 2 0.692483 0.0887591 0.511717
341 1 0.694156 0.496545 0.96752
249 1 0.515284 0.341374 0.676577
314 1 0.904891 0.0523103 0.892747
266 1 0.711835 0.493159 0.763369
264 1 0.536414 0.503156 0.664047
239 1 0.866891 0.0656476 0.724101
269 1 0.959851 0.463487 0.669785
237 1 0.724931 0.0433311 0.675923
312 1 0.664287 0.0714843 0.849059
191 1 0.772557 0.490638 0.49607
252 1 0.679844 0.251563 0.671711
327 1 0.705112 0.320209 0.955515
324 1 0.519372 0.335536 0.936645
267 1 0.747693 0.484589 0.672875
159 1 0.510721 0.168399 0.48838
165 1 0.845834 0.0950604 0.534443
240 1 0.909339 0.0817298 0.637568
315 1 0.854271 0.133374 0.872396
180 1 0.963518 0.308427 0.497304
255 1 0.909873 0.276432 0.660036
330 1 0.884058 0.253297 0.864073
234 1 0.543873 0.122076 0.687716
270 1 0.868981 0.466985 0.705545
248 1 0.523964 0.271513 0.744342
163 2 0.897956 0.109764 0.504708
338 1 0.474911 0.455184 0.953923
326 1 0.736593 0.271499 0.876874
251 1 0.724104 0.277002 0.755032
235 2 0.710083 0.0950152 0.706343
310 2 0.717132 0.0879532 0.876504
250 2 0.689314 0.299682 0.709289
325 2 0.685477 0.294446 0.902905
238 2 0.898388 0.108231 0.692294
313 2 0.897583 0.111065 0.910389
253 2 0.891247 0.305475 0.711287
328 2 0.887619 0.30893 0.890708
268 2 0.909139 0.498759 0.670979
176 1 0.75614 0.28036 0.503533
311 1 0.702858 0.0919121 0.936485
236 1 0.722712 0.0823528 0.765481
161 1 0.69394 0.11424 0.567982
323 1 0.551595 0.26607 0.875944
344 1 0.872253 0.46296 0.937073
178 2 0.902569 0.300779 0.503926
54 1 0.54045 0.751109 0.121937
146 1 0.69856 0.847537 0.283518
69 1 0.502062 0.856772 0.0529498
218 1 0.516483 0.95848 0.464886
57 1 0.711737 0.702467 0.142443
132 1 0.694804 0.718871 0.359401
72 1 0.661236 0.874163 0.121391
147 1 0.751661 0.913809 0.331858
60 1 0.917939 0.714956 0.151264
135 1 0.884421 0.638383 0.276806
75 1 0.95253 0.931197 0.0830776
150 1 0.917781 0.937495 0.350521
149 1 0.954599 0.913111 0.263355
74 1 0.858677 0.956759 0.0737705
210 1 0.853973 0.681087 0.459088
38 1 0.528879 0.533307 0.107611
127 2 0.506949 0.7043 0.297737
193 2 0.907304 0.505773 0.497395
71 1 0.758907 0.874899 0.118507
142 2 0.514133 0.913229 0.298999
217 2 0.501541 0.902424 0.486137
134 1 0.891034 0.678244 0.365777
59 1 0.906864 0.763357 0.0671042
41 1 0.693478 0.494403 0.173497
55 2 0.69925 0.712416 0.0827587
130 2 0.696357 0.693051 0.303294
205 2 0.70209 0.684159 0.481656
70 2 0.709443 0.910337 0.1078
145 2 0.705149 0.908439 0.291546
220 2 0.712483 0.904871 0.496973
118 2 0.881202 0.514291 0.301379
44 1 0.947686 0.4993 0.0473401
40 2 0.702686 0.510611 0.114593
58 2 0.906845 0.70642 0.0910881
133 2 0.907845 0.686951 0.306966
208 2 0.90124 0.698209 0.495002
73 2 0.895081 0.910271 0.0919584
148 2 0.913914 0.894758 0.306073
68 1 0.509175 0.883447 0.146685
131 1 0.651078 0.651029 0.304321
114 1 0.530531 0.547166 0.30553
56 1 0.727517 0.666173 0.0531019
116 1 0.705808 0.502634 0.340987
143 1 0.510823 0.964226 0.264279
129 1 0.513522 0.735694 0.350541
45 1 0.856292 0.529516 0.0641396
207 1 0.658913 0.726912 0.470475
225 1 0.86352 0.864231 0.473417
209 1 0.946002 0.657628 0.482085
221 1 0.748584 0.944401 0.466131
206 1 0.750511 0.716198 0.502776
204 1 0.543049 0.674298 0.550765
279 1 0.558651 0.714982 0.715289
354 1 0.532628 0.676143 0.92335
223 2 0.885551 0.910944 0.507322
374 1 0.970587 0.907287 0.912716
277 2 0.503514 0.696493 0.694427
345 1 0.857535 0.525844 0.863743
282 1 0.679129 0.662171 0.663785
357 1 0.669333 0.690026 0.93321
222 1 0.685253 0.939392 0.540377
297 1 0.663491 0.930588 0.718507
372 1 0.645074 0.929342 0.916831
195 1 0.915484 0.52272 0.556243
285 1 0.853149 0.7211 0.679975
360 1 0.892688 0.637998 0.861592
342 1 0.639852 0.528643 0.892896
300 1 0.841894 0.924317 0.693005
375 1 0.883524 0.862934 0.911616
299 1 0.914291 0.862939 0.716231
224 1 0.902415 0.884751 0.560675
359 1 0.916329 0.669503 0.951017
284 1 0.872925 0.669801 0.760757
192 1 0.697167 0.549306 0.516632
367 2 0.501208 0.906535 0.888656
265 2 0.700417 0.50854 0.70463
340 2 0.696923 0.50983 0.907247
280 2 0.712407 0.692923 0.705785
355 2 0.698748 0.692293 0.878926
295 2 0.707129 0.902956 0.684608
370 2 0.698041 0.901581 0.901311
281 1 0.700694 0.663939 0.759075
343 2 0.893836 0.515443 0.912642
283 2 0.899711 0.695078 0.711151
358 2 0.89331 0.688644 0.896971
298 2 0.902752 0.915867 0.686524
373 2 0.910225 0.918314 0.90551
356 1 0.741007 0.736797 0.886055
294 1 0.517469 0.894582 0.752341
189 1 0.492859 0.560774 0.525656
296 1 0.722078 0.852404 0.716828
371 1 0.710038 0.863595 0.948537
ITEM: TIMESTEP
75
ITEM: NUMBER OF ATOMS
375
ITEM: BOX BOUNDS pp pp pp
3.9423971629695131e-02 1.5460576028370301e+01
3.9423971629695131e-02 1.5460576028370301e+01
3.9423971629695131e-02 1.5460576028370301e+01
ITEM: ATOMS id type xs ys zs
3 1 0.037858 0.0984754 0.114089
78 1 0.10579 0.0404981 0.325317
18 1 0.0865218 0.254806 0.103507
93 1 0.149469 0.252288 0.299555
33 1 0.114467 0.417493 0.0653172
39 1 0.426238 0.495498 0.0915617
6 1 0.338287 0.0981462 0.130015
81 1 0.300157 0.109929 0.37265
21 1 0.242572 0.302879 0.138893
96 1 0.267906 0.322515 0.371713
36 1 0.314221 0.415561 0.101923
7 2 0.486712 0.109391 0.057112
1 2 0.0875545 0.0963754 0.0769865
76 2 0.0843527 0.0981685 0.317227
151 2 0.101353 0.104487 0.481039
16 2 0.106318 0.312935 0.112456
91 2 0.118487 0.297315 0.270168
110 1 0.377494 0.495473 0.314251
4 2 0.277665 0.0939467 0.142586
79 2 0.305695 0.0973137 0.312143
154 2 0.315531 0.110714 0.473703
19 2 0.284724 0.30536 0.0934174
94 2 0.283321 0.297399 0.317102
169 2 0.307492 0.315283 0.478915
2 1 0.13584 0.103966 0.115216
77 1 0.083411 0.122565 0.374278
17 1 0.107119 0.319776 0.174127
92 1 0.0996344 0.335336 0.315445
5 1 0.275257 0.0699118 0.199745
80 1 0.333692 0.147312 0.288325
20 1 0.294131 0.246077 0.0776713
95 1 0.312092 0.343098 0.286527
31 2 0.106435 0.475358 0.0862457
172 2 0.48763 0.300295 0.486088
34 2 0.31512 0.477259 0.0953376
109 2 0.319534 0.475944 0.303765
174 1 0.452155 0.35026 0.476295
84 1 0.475166 0.152462 0.267319
24 1 0.496536 0.366014 0.0928485
99 1 0.462544 0.316184 0.255509
171 1 0.330202 0.269699 0.443457
112 2 0.493934 0.490128 0.308858
37 2 0.482498 0.470317 0.0987356
32 1 0.0971035 0.468691 0.147232
108 1 0.0986193 0.486307 0.363842
107 1 0.173275 0.498346 0.301276
35 1 0.283815 0.49861 0.14448
185 1 0.334648 0.480896 0.446849
97 2 0.499687 0.275225 0.283682
188 1 0.491681 0.488145 0.450617
152 1 0.0475741 0.0766401 0.467499
155 1 0.254274 0.100864 0.472865
8 1 0.488764 0.170853 0.0654207
153 1 0.0986416 0.114661 0.542195
228 1 0.035909 0.115014 0.732094
303 1 0.0446032 0.128187 0.906756
260 1 0.261607 0.447706 0.703322
243 1 0.0971833 0.228304 0.666111
318 1 0.154278 0.2532 0.87885
338 1 0.439869 0.491562 0.891532
232 2 0.49098 0.0781269 0.705639
309 1 0.484994 0.13173 0.929151
156 1 0.335867 0.0780973 0.52242
231 1 0.271318 0.0578426 0.691311
306 1 0.327118 0.0693493 0.901745
166 2 0.092792 0.303085 0.507587
246 1 0.294505 0.239664 0.670614
321 1 0.347336 0.253923 0.948565
247 2 0.495817 0.272847 0.698247
234 1 0.490797 0.0478233 0.651486
259 2 0.30262 0.494275 0.703627
226 2 0.0962728 0.12549 0.722228
301 2 0.0969553 0.0970935 0.918726
241 2 0.0949063 0.290298 0.664541
316 2 0.101012 0.284096 0.871175
229 2 0.316593 0.0992204 0.700747
304 2 0.298654 0.111152 0.865786
244 2 0.301004 0.301214 0.675092
319 2 0.298672 0.285457 0.926467
257 1 0.113328 0.460502 0.698319
227 1 0.124726 0.0995332 0.770886
302 1 0.103021 0.100003 0.980415
167 1 0.0897206 0.323531 0.566097
242 1 0.101856 0.307626 0.723722
317 1 0.0966223 0.320255 0.921411
233 1 0.434401 0.103314 0.709564
230 1 0.305648 0.121565 0.757597
305 1 0.250856 0.131106 0.899962
170 1 0.284332 0.286253 0.528631
245 1 0.311359 0.311419 0.735421
320 1 0.320837 0.342284 0.915056
168 1 0.113251 0.24471 0.512558
337 2 0.492522 0.487967 0.924175
249 1 0.469806 0.293272 0.645738
332 1 0.136211 0.473715 0.919808
258 1 0.0918284 0.495716 0.787373
186 1 0.272825 0.464669 0.521328
261 1 0.352222 0.471517 0.674088
264 1 0.457077 0.493741 0.649494
158 1 0.473032 0.113793 0.508151
48 1 0.103322 0.639191 0.0267325
123 1 0.0222388 0.68042 0.295839
63 1 0.0813474 0.948554 0.123441
138 1 0.163785 0.905606 0.281529
51 1 0.317897 0.692174 0.118972
126 1 0.244309 0.697984 0.324748
66 1 0.314903 0.949482 0.0632577
141 1 0.334231 0.931767 0.313847
140 1 0.301618 0.906419 0.224816
65 1 0.243391 0.898092 0.106586
181 2 0.107017 0.533875 0.498171
46 2 0.1047 0.68354 0.0701168
121 2 0.0807947 0.700919 0.296992
114 1 0.484976 0.545199 0.281694
61 2 0.100355 0.900221 0.089476
136 2 0.121157 0.927471 0.320971
211 2 0.0773528 0.869372 0.492649
125 1 0.304755 0.747789 0.265599
50 1 0.226781 0.696747 0.0827791
128 1 0.471507 0.70565 0.342616
49 2 0.286243 0.705345 0.0672461
124 2 0.300377 0.695228 0.298297
199 2 0.2935 0.691386 0.482204
64 2 0.30455 0.908389 0.108585
139 2 0.2893 0.89989 0.285282
214 2 0.287964 0.887346 0.485399
69 1 0.43132 0.86816 0.081177
201 1 0.349767 0.710857 0.464716
47 1 0.0455033 0.701107 0.0762954
122 1 0.104553 0.683215 0.242466
62 1 0.0480221 0.874979 0.0676809
137 1 0.0787587 0.882309 0.324664
144 1 0.494102 0.8982 0.348233
200 1 0.301684 0.631772 0.497373
217 2 0.498584 0.918342 0.486058
67 2 0.487854 0.887721 0.0976756
106 2 0.111414 0.501492 0.305048
182 1 0.0888576 0.593202 0.496973
52 2 0.499339 0.716396 0.113831
68 1 0.477809 0.925388 0.145957
111 1 0.286604 0.528059 0.296659
212 1 0.0154898 0.865688 0.489438
184 2 0.304203 0.509809 0.492541
213 1 0.0954135 0.879202 0.434099
198 1 0.143999 0.676453 0.484415
334 2 0.287033 0.516651 0.90672