ITEM: TIMESTEP
0
ITEM: NUMBER OF ATOMS
375
ITEM: BOX BOUNDS pp pp pp
0.0000000000000000e+00 1.5500000000000000e+01
0.0000000000000000e+00 1.5500000000000000e+01
0.0000000000000000e+00 1.5500000000000000e+01
ITEM: ATOMS id type xs ys zs
3 1 0.1 0.0511645 0.134573
78 1 0.1 0.0511645 0.334573
18 1 0.1 0.251164 0.134573
93 1 0.1 0.251164 0.334573
33 1 0.1 0.451164 0.134573
108 1 0.1 0.451164 0.334573
6 1 0.3 0.0511645 0.134573
81 1 0.3 0.0511645 0.334573
21 1 0.3 0.251164 0.134573
96 1 0.3 0.251164 0.334573
36 1 0.3 0.451164 0.134573
111 1 0.3 0.451164 0.334573
1 2 0.1 0.1 0.0967742
76 2 0.1 0.1 0.296774
151 2 0.1 0.1 0.496774
16 2 0.1 0.3 0.0967742
91 2 0.1 0.3 0.296774
166 2 0.1 0.3 0.496774
4 2 0.3 0.1 0.0967742
79 2 0.3 0.1 0.296774
154 2 0.3 0.1 0.496774
19 2 0.3 0.3 0.0967742
94 2 0.3 0.3 0.296774
169 2 0.3 0.3 0.496774
2 1 0.1 0.148836 0.134573
77 1 0.1 0.148836 0.334573
17 1 0.1 0.348836 0.134573
92 1 0.1 0.348836 0.334573
5 1 0.3 0.148836 0.134573
80 1 0.3 0.148836 0.334573
20 1 0.3 0.348836 0.134573
95 1 0.3 0.348836 0.334573
153 1 0.1 0.0511645 0.534573
228 1 0.1 0.0511645 0.734573
303 1 0.1 0.0511645 0.934573
168 1 0.1 0.251164 0.534573
243 1 0.1 0.251164 0.734573
318 1 0.1 0.251164 0.934573
183 1 0.1 0.451164 0.534573
258 1 0.1 0.451164 0.734573
333 1 0.1 0.451164 0.934573
156 1 0.3 0.0511645 0.534573
231 1 0.3 0.0511645 0.734573
306 1 0.3 0.0511645 0.934573
171 1 0.3 0.251164 0.534573
246 1 0.3 0.251164 0.734573
321 1 0.3 0.251164 0.934573
186 1 0.3 0.451164 0.534573
261 1 0.3 0.451164 0.734573
336 1 0.3 0.451164 0.934573
226 2 0.1 0.1 0.696774
301 2 0.1 0.1 0.896774
241 2 0.1 0.3 0.696774
316 2 0.1 0.3 0.896774
229 2 0.3 0.1 0.696774
304 2 0.3 0.1 0.896774
244 2 0.3 0.3 0.696774
319 2 0.3 0.3 0.896774
152 1 0.1 0.148836 0.534573
227 1 0.1 0.148836 0.734573
302 1 0.1 0.148836 0.934573
167 1 0.1 0.348836 0.534573
242 1 0.1 0.348836 0.734573
317 1 0.1 0.348836 0.934573
155 1 0.3 0.148836 0.534573
230 1 0.3 0.148836 0.734573
305 1 0.3 0.148836 0.934573
170 1 0.3 0.348836 0.534573
245 1 0.3 0.348836 0.734573
320 1 0.3 0.348836 0.934573
48 1 0.1 0.651164 0.134573
123 1 0.1 0.651164 0.334573
63 1 0.1 0.851164 0.134573
138 1 0.1 0.851164 0.334573
51 1 0.3 0.651164 0.134573
126 1 0.3 0.651164 0.334573
66 1 0.3 0.851164 0.134573
141 1 0.3 0.851164 0.334573
31 2 0.1 0.5 0.0967742
106 2 0.1 0.5 0.296774
181 2 0.1 0.5 0.496774
46 2 0.1 0.7 0.0967742
121 2 0.1 0.7 0.296774
196 2 0.1 0.7 0.496774
61 2 0.1 0.9 0.0967742
136 2 0.1 0.9 0.296774
211 2 0.1 0.9 0.496774
34 2 0.3 0.5 0.0967742
109 2 0.3 0.5 0.296774
184 2 0.3 0.5 0.496774
49 2 0.3 0.7 0.0967742
124 2 0.3 0.7 0.296774
199 2 0.3 0.7 0.496774
64 2 0.3 0.9 0.0967742
139 2 0.3 0.9 0.296774
214 2 0.3 0.9 0.496774
32 1 0.1 0.548836 0.134573
107 1 0.1 0.548836 0.334573
47 1 0.1 0.748836 0.134573
122 1 0.1 0.748836 0.334573
62 1 0.1 0.948836 0.134573
137 1 0.1 0.948836 0.334573
35 1 0.3 0.548836 0.134573
110 1 0.3 0.548836 0.334573
50 1 0.3 0.748836 0.134573
125 1 0.3 0.748836 0.334573
65 1 0.3 0.948836 0.134573
140 1 0.3 0.948836 0.334573
198 1 0.1 0.651164 0.534573
273 1 0.1 0.651164 0.734573
348 1 0.1 0.651164 0.934573
213 1 0.1 0.851164 0.534573
288 1 0.1 0.851164 0.734573
363 1 0.1 0.851164 0.934573
201 1 0.3 0.651164 0.534573
276 1 0.3 0.651164 0.734573
351 1 0.3 0.651164 0.934573
216 1 0.3 0.851164 0.534573
291 1 0.3 0.851164 0.734573
366 1 0.3 0.851164 0.934573
256 2 0.1 0.5 0.696774
331 2 0.1 0.5 0.896774
271 2 0.1 0.7 0.696774
346 2 0.1 0.7 0.896774
286 2 0.1 0.9 0.696774
361 2 0.1 0.9 0.896774
259 2 0.3 0.5 0.696774
334 2 0.3 0.5 0.896774
274 2 0.3 0.7 0.696774
349 2 0.3 0.7 0.896774
289 2 0.3 0.9 0.696774
364 2 0.3 0.9 0.896774
182 1 0.1 0.548836 0.534573
257 1 0.1 0.548836 0.734573
332 1 0.1 0.548836 0.934573
197 1 0.1 0.748836 0.534573
272 1 0.1 0.748836 0.734573
347 1 0.1 0.748836 0.934573
212 1 0.1 0.948836 0.534573
287 1 0.1 0.948836 0.734573
362 1 0.1 0.948836 0.934573
185 1 0.3 0.548836 0.534573
260 1 0.3 0.548836 0.734573
335 1 0.3 0.548836 0.934573
200 1 0.3 0.748836 0.534573
275 1 0.3 0.748836 0.734573
350 1 0.3 0.748836 0.934573
215 1 0.3 0.948836 0.534573
290 1 0.3 0.948836 0.734573
365 1 0.3 0.948836 0.934573
9 1 0.5 0.0511645 0.134573
84 1 0.5 0.0511645 0.334573
24 1 0.5 0.251164 0.134573
99 1 0.5 0.251164 0.334573
39 1 0.5 0.451164 0.134573
114 1 0.5 0.451164 0.334573
12 1 0.7 0.0511645 0.134573
87 1 0.7 0.0511645 0.334573
27 1 0.7 0.251164 0.134573
102 1 0.7 0.251164 0.334573
42 1 0.7 0.451164 0.134573
117 1 0.7 0.451164 0.334573
15 1 0.9 0.0511645 0.134573
90 1 0.9 0.0511645 0.334573
30 1 0.9 0.251164 0.134573
105 1 0.9 0.251164 0.334573
45 1 0.9 0.451164 0.134573
120 1 0.9 0.451164 0.334573
7 2 0.5 0.1 0.0967742
82 2 0.5 0.1 0.296774
157 2 0.5 0.1 0.496774
22 2 0.5 0.3 0.0967742
97 2 0.5 0.3 0.296774
172 2 0.5 0.3 0.496774
10 2 0.7 0.1 0.0967742
85 2 0.7 0.1 0.296774
160 2 0.7 0.1 0.496774
25 2 0.7 0.3 0.0967742
100 2 0.7 0.3 0.296774
175 2 0.7 0.3 0.496774
13 2 0.9 0.1 0.0967742
88 2 0.9 0.1 0.296774
163 2 0.9 0.1 0.496774
28 2 0.9 0.3 0.0967742
103 2 0.9 0.3 0.296774
178 2 0.9 0.3 0.496774
8 1 0.5 0.148836 0.134573
83 1 0.5 0.148836 0.334573
23 1 0.5 0.348836 0.134573
98 1 0.5 0.348836 0.334573
11 1 0.7 0.148836 0.134573
86 1 0.7 0.148836 0.334573
26 1 0.7 0.348836 0.134573
101 1 0.7 0.348836 0.334573
14 1 0.9 0.148836 0.134573
89 1 0.9 0.148836 0.334573
29 1 0.9 0.348836 0.134573
104 1 0.9 0.348836 0.334573
159 1 0.5 0.0511645 0.534573
234 1 0.5 0.0511645 0.734573
309 1 0.5 0.0511645 0.934573
174 1 0.5 0.251164 0.534573
249 1 0.5 0.251164 0.734573
324 1 0.5 0.251164 0.934573
189 1 0.5 0.451164 0.534573
264 1 0.5 0.451164 0.734573
339 1 0.5 0.451164 0.934573
162 1 0.7 0.0511645 0.534573
237 1 0.7 0.0511645 0.734573
312 1 0.7 0.0511645 0.934573
177 1 0.7 0.251164 0.534573
252 1 0.7 0.251164 0.734573
327 1 0.7 0.251164 0.934573
192 1 0.7 0.451164 0.534573
267 1 0.7 0.451164 0.734573
342 1 0.7 0.451164 0.934573
165 1 0.9 0.0511645 0.534573
240 1 0.9 0.0511645 0.734573
315 1 0.9 0.0511645 0.934573
180 1 0.9 0.251164 0.534573
255 1 0.9 0.251164 0.734573
330 1 0.9 0.251164 0.934573
195 1 0.9 0.451164 0.534573
270 1 0.9 0.451164 0.734573
345 1 0.9 0.451164 0.934573
232 2 0.5 0.1 0.696774
307 2 0.5 0.1 0.896774
247 2 0.5 0.3 0.696774
322 2 0.5 0.3 0.896774
235 2 0.7 0.1 0.696774
310 2 0.7 0.1 0.896774
250 2 0.7 0.3 0.696774
325 2 0.7 0.3 0.896774
238 2 0.9 0.1 0.696774
313 2 0.9 0.1 0.896774
253 2 0.9 0.3 0.696774
328 2 0.9 0.3 0.896774
158 1 0.5 0.148836 0.534573
233 1 0.5 0.148836 0.734573
308 1 0.5 0.148836 0.934573
173 1 0.5 0.348836 0.534573
248 1 0.5 0.348836 0.734573
323 1 0.5 0.348836 0.934573
161 1 0.7 0.148836 0.534573
236 1 0.7 0.148836 0.734573
311 1 0.7 0.148836 0.934573
176 1 0.7 0.348836 0.534573
251 1 0.7 0.348836 0.734573
326 1 0.7 0.348836 0.934573
164 1 0.9 0.148836 0.534573
239 1 0.9 0.148836 0.734573
314 1 0.9 0.148836 0.934573
179 1 0.9 0.348836 0.534573
254 1 0.9 0.348836 0.734573
329 1 0.9 0.348836 0.934573
54 1 0.5 0.651164 0.134573
129 1 0.5 0.651164 0.334573
69 1 0.5 0.851164 0.134573
144 1 0.5 0.851164 0.334573
57 1 0.7 0.651164 0.134573
132 1 0.7 0.651164 0.334573
72 1 0.7 0.851164 0.134573
147 1 0.7 0.851164 0.334573
60 1 0.9 0.651164 0.134573
135 1 0.9 0.651164 0.334573
75 1 0.9 0.851164 0.134573
150 1 0.9 0.851164 0.334573
37 2 0.5 0.5 0.0967742
112 2 0.5 0.5 0.296774
187 2 0.5 0.5 0.496774
52 2 0.5 0.7 0.0967742
127 2 0.5 0.7 0.296774
202 2 0.5 0.7 0.496774
67 2 0.5 0.9 0.0967742
142 2 0.5 0.9 0.296774
217 2 0.5 0.9 0.496774
40 2 0.7 0.5 0.0967742
115 2 0.7 0.5 0.296774
190 2 0.7 0.5 0.496774
55 2 0.7 0.7 0.0967742
130 2 0.7 0.7 0.296774
205 2 0.7 0.7 0.496774
70 2 0.7 0.9 0.0967742
145 2 0.7 0.9 0.296774
220 2 0.7 0.9 0.496774
43 2 0.9 0.5 0.0967742
118 2 0.9 0.5 0.296774
193 2 0.9 0.5 0.496774
58 2 0.9 0.7 0.0967742
133 2 0.9 0.7 0.296774
208 2 0.9 0.7 0.496774
73 2 0.9 0.9 0.0967742
148 2 0.9 0.9 0.296774
223 2 0.9 0.9 0.496774
38 1 0.5 0.548836 0.134573
113 1 0.5 0.548836 0.334573
53 1 0.5 0.748836 0.134573
128 1 0.5 0.748836 0.334573
68 1 0.5 0.948836 0.134573
143 1 0.5 0.948836 0.334573
41 1 0.7 0.548836 0.134573
116 1 0.7 0.548836 0.334573
56 1 0.7 0.748836 0.134573
131 1 0.7 0.748836 0.334573
71 1 0.7 0.948836 0.134573
146 1 0.7 0.948836 0.334573
44 1 0.9 0.548836 0.134573
119 1 0.9 0.548836 0.334573
59 1 0.9 0.748836 0.134573
134 1 0.9 0.748836 0.334573
74 1 0.9 0.948836 0.134573
149 1 0.9 0.948836 0.334573
204 1 0.5 0.651164 0.534573
279 1 0.5 0.651164 0.734573
354 1 0.5 0.651164 0.934573
219 1 0.5 0.851164 0.534573
294 1 0.5 0.851164 0.734573
369 1 0.5 0.851164 0.934573
207 1 0.7 0.651164 0.534573
282 1 0.7 0.651164 0.734573
357 1 0.7 0.651164 0.934573
222 1 0.7 0.851164 0.534573
297 1 0.7 0.851164 0.734573
372 1 0.7 0.851164 0.934573
210 1 0.9 0.651164 0.534573
285 1 0.9 0.651164 0.734573
360 1 0.9 0.651164 0.934573
225 1 0.9 0.851164 0.534573
300 1 0.9 0.851164 0.734573
375 1 0.9 0.851164 0.934573
262 2 0.5 0.5 0.696774
337 2 0.5 0.5 0.896774
277 2 0.5 0.7 0.696774
352 2 0.5 0.7 0.896774
292 2 0.5 0.9 0.696774
367 2 0.5 0.9 0.896774
265 2 0.7 0.5 0.696774
340 2 0.7 0.5 0.896774
280 2 0.7 0.7 0.696774
355 2 0.7 0.7 0.896774
295 2 0.7 0.9 0.696774
370 2 0.7 0.9 0.896774
268 2 0.9 0.5 0.696774
343 2 0.9 0.5 0.896774
283 2 0.9 0.7 0.696774
358 2 0.9 0.7 0.896774
298 2 0.9 0.9 0.696774
373 2 0.9 0.9 0.896774
188 1 0.5 0.548836 0.534573
263 1 0.5 0.548836 0.734573
338 1 0.5 0.548836 0.934573
203 1 0.5 0.748836 0.534573
278 1 0.5 0.748836 0.734573
353 1 0.5 0.748836 0.934573
218 1 0.5 0.948836 0.534573
293 1 0.5 0.948836 0.734573
368 1 0.5 0.948836 0.934573
191 1 0.7 0.548836 0.534573
266 1 0.7 0.548836 0.734573
341 1 0.7 0.548836 0.934573
206 1 0.7 0.748836 0.534573
281 1 0.7 0.748836 0.734573
356 1 0.7 0.748836 0.934573
221 1 0.7 0.948836 0.534573
296 1 0.7 0.948836 0.734573
371 1 0.7 0.948836 0.934573
194 1 0.9 0.548836 0.534573
269 1 0.9 0.548836 0.734573
344 1 0.9 0.548836 0.934573
209 1 0.9 0.748836 0.534573
284 1 0.9 0.748836 0.734573
359 1 0.9 0.748836 0.934573
224 1 0.9 0.948836 0.534573
299 1 0.9 0.948836 0.734573
374 1 0.9 0.948836 0.934573
ITEM: TIMESTEP
25
ITEM: NUMBER OF ATOMS
375
ITEM: BOX BOUNDS pp pp pp
-1.0591077220436063e-02 1.5510591077220443e+01
-1.0591077220436063e-02 1.5510591077220443e+01
-1.0591077220436063e-02 1.5510591077220443e+01
ITEM: ATOMS id type xs ys zs
3 1 0.0467314 0.0907701 0.134358
78 1 0.0890373 0.0458458 0.299941
18 1 0.0682689 0.253654 0.088567
93 1 0.150153 0.255334 0.294323
33 1 0.106074 0.433082 0.0903428
108 1 0.0790123 0.505511 0.358444
6 1 0.28807 0.0397004 0.121889
81 1 0.312801 0.103538 0.365971
21 1 0.263766 0.252902 0.103054
96 1 0.303532 0.289049 0.365065
36 1 0.269635 0.43912 0.101342
111 1 0.28063 0.494633 0.355408
1 2 0.0926969 0.0990808 0.0940877
76 2 0.0964489 0.107055 0.301361
151 2 0.102564 0.0985224 0.491663
16 2 0.103835 0.301601 0.104047
91 2 0.104732 0.296501 0.287566
166 2 0.104632 0.303071 0.500109
4 2 0.296808 0.0995312 0.109743
79 2 0.304317 0.103272 0.304885
154 2 0.304238 0.0988424 0.488127
19 2 0.298982 0.302822 0.0946002
94 2 0.296579 0.295301 0.304106
169 2 0.304063 0.304178 0.494904
2 1 0.143866 0.0869991 0.126323
77 1 0.0784831 0.123496 0.358023
17 1 0.10704 0.299241 0.165591
92 1 0.106298 0.329901 0.33939
5 1 0.311322 0.124421 0.164272
80 1 0.272078 0.154606 0.293528
20 1 0.32432 0.313401 0.149823
95 1 0.311253 0.354129 0.292823
9 1 0.468558 0.0662425 0.133486
84 1 0.471783 0.116197 0.33888
24 1 0.459634 0.287344 0.140106
99 1 0.461843 0.294072 0.34051
39 1 0.448783 0.46506 0.123719
114 1 0.487907 0.506576 0.359105
7 2 0.493335 0.0999381 0.0881609
82 2 0.499986 0.100983 0.286189
172 2 0.497846 0.304883 0.494787
31 2 0.104482 0.494705 0.0922569
34 2 0.302114 0.491445 0.0980694
109 2 0.306833 0.494239 0.29958
184 2 0.303334 0.499061 0.497084
37 2 0.499227 0.492549 0.101286
112 2 0.497282 0.496498 0.298988
153 1 0.117073 0.051108 0.528337
228 1 0.0652887 0.0574232 0.69549
303 1 0.0556174 0.0845778 0.942212
168 1 0.121092 0.244403 0.509633
243 1 0.124609 0.251347 0.69501
318 1 0.0652088 0.258812 0.913918
183 1 0.108779 0.460382 0.541848
258 1 0.0714877 0.489232 0.762746
333 1 0.0679239 0.46607 0.943866
156 1 0.268701 0.0654181 0.525855
231 1 0.298085 0.0447613 0.688691
306 1 0.346053 0.0965498 0.926867
171 1 0.269276 0.253364 0.498289
246 1 0.338919 0.256093 0.719987
321 1 0.330049 0.28158 0.962183
186 1 0.343128 0.482631 0.541244
261 1 0.277653 0.501436 0.761221
336 1 0.268956 0.48888 0.950321
226 2 0.0991877 0.108351 0.703285
301 2 0.102748 0.101285 0.906116
241 2 0.0937535 0.304056 0.686442
316 2 0.101757 0.30274 0.890719
229 2 0.299865 0.105739 0.69775
304 2 0.295932 0.101786 0.891314
244 2 0.300142 0.297486 0.695767
319 2 0.303076 0.292825 0.907873
152 1 0.0807366 0.141614 0.530008
227 1 0.11393 0.108098 0.76317
302 1 0.142277 0.129297 0.944278
167 1 0.0865767 0.323254 0.555519
242 1 0.101343 0.33516 0.739154
317 1 0.135055 0.322166 0.938858
155 1 0.344374 0.126962 0.52557
230 1 0.275625 0.113745 0.753893
305 1 0.261262 0.144219 0.919617
170 1 0.274067 0.345765 0.529174
245 1 0.29545 0.341348 0.738869
320 1 0.305237 0.354174 0.901943
159 1 0.495354 0.120898 0.552746
234 1 0.510015 0.0944259 0.762188
174 1 0.452987 0.2979 0.53653
324 1 0.476925 0.29556 0.958656
339 1 0.455466 0.460542 0.929115
307 2 0.498599 0.0929921 0.890467
247 2 0.496769 0.294335 0.691383
322 2 0.497896 0.293463 0.900698
233 1 0.464975 0.142109 0.689996
308 1 0.48214 0.150226 0.874437
173 1 0.49779 0.365209 0.481973
248 1 0.474441 0.324221 0.740493
331 2 0.0984723 0.494231 0.898289
259 2 0.294718 0.498903 0.702011
337 2 0.498897 0.494315 0.901247
48 1 0.137742 0.660661 0.118198
123 1 0.0380308 0.686163 0.311585
63 1 0.108105 0.865307 0.148152
138 1 0.0650354 0.884198 0.3447
51 1 0.337128 0.664812 0.121063
126 1 0.273669 0.6566 0.337984
66 1 0.290339 0.888481 0.157595
141 1 0.291496 0.859561 0.337816
128 1 0.479002 0.756171 0.286936
106 2 0.0993099 0.501495 0.300346
181 2 0.105417 0.503885 0.49826
46 2 0.100655 0.699954 0.0884619
121 2 0.0961816 0.698391 0.295078
196 2 0.0979739 0.694134 0.499673
61 2 0.0962329 0.894361 0.0950626
136 2 0.104635 0.909778 0.304935
211 2 0.095444 0.889545 0.494933
53 1 0.447551 0.711589 0.130515
38 1 0.499809 0.548075 0.128122
67 2 0.492685 0.904382 0.0937887
49 2 0.297934 0.700157 0.0891518
124 2 0.298999 0.696003 0.297866
199 2 0.294409 0.699084 0.494815
64 2 0.296653 0.902666 0.0979086
139 2 0.29784 0.89595 0.288428
214 2 0.291976 0.892232 0.492179
32 1 0.0786505 0.507822 0.146702
107 1 0.153827 0.530323 0.300987
47 1 0.0756478 0.734396 0.133093
122 1 0.120213 0.727738 0.343707
62 1 0.133921 0.943178 0.0953889
137 1 0.159762 0.903603 0.331882
35 1 0.287083 0.522208 0.149366
110 1 0.354439 0.533126 0.30457
50 1 0.262397 0.726518 0.132114
125 1 0.279291 0.751505 0.316164
65 1 0.356095 0.917931 0.0918504
140 1 0.320454 0.948736 0.310918
129 1 0.481207 0.686161 0.354818
198 1 0.125315 0.709006 0.552915
273 1 0.0397645 0.687965 0.716551
348 1 0.0748623 0.671128 0.948068
213 1 0.134502 0.891973 0.542599
288 1 0.0673157 0.846397 0.69379
363 1 0.0928974 0.865339 0.956306
201 1 0.349269 0.670921 0.493946
276 1 0.283542 0.665051 0.751018
351 1 0.32741 0.690747 0.958065
216 1 0.273187 0.872583 0.547538
291 1 0.281604 0.847147 0.724944
366 1 0.326934 0.915782 0.958182
256 2 0.0942206 0.502532 0.706981
368 1 0.468463 0.950522 0.900445
271 2 0.0978213 0.700494 0.699938
346 2 0.093208 0.701494 0.89762
286 2 0.101648 0.897321 0.688176
361 2 0.105453 0.897455 0.905174
293 1 0.500615 0.957534 0.681339
334 2 0.291925 0.499897 0.894155
274 2 0.304908 0.697171 0.702898
349 2 0.300037 0.693516 0.90287
289 2 0.3047 0.894013 0.692175
364 2 0.307722 0.900189 0.901691
182 1 0.11273 0.556967 0.528797
257 1 0.150868 0.524209 0.718145
332 1 0.135789 0.53407 0.926993
197 1 0.0599769 0.741312 0.488096
272 1 0.131671 0.684902 0.749076
347 1 0.09518 0.760628 0.915027
212 1 0.0560397 0.935941 0.504853
287 1 0.115323 0.913221 0.746173
362 1 0.11294 0.955446 0.924786
185 1 0.249373 0.505042 0.526341
260 1 0.352413 0.520688 0.701603
335 1 0.307174 0.559647 0.895133
200 1 0.293636 0.729788 0.548297
275 1 0.325739 0.749775 0.727443
350 1 0.262365 0.742194 0.906718
215 1 0.338634 0.930656 0.504428
290 1 0.315114 0.938324 0.73379
365 1 0.246416 0.906527 0.903913
294 1 0.4911 0.89715 0.757349
262 2 0.494833 0.504279 0.699447
353 1 0.457446 0.730066 0.935895
277 2 0.499322 0.697207 0.697806
352 2 0.496389 0.703755 0.895959
292 2 0.496736 0.89774 0.695937
188 1 0.457881 0.544663 0.508938
263 1 0.475881 0.530869 0.751768
203 1 0.470949 0.731545 0.540438
278 1 0.460309 0.73722 0.723892
104 1 0.946753 0.320381 0.325196
29 1 0.908845 0.356315 0.116027
89 1 0.935202 0.140421 0.340579
14 1 0.942024 0.146282 0.0935261
101 1 0.654235 0.311332 0.345262
26 1 0.674432 0.305194 0.154603
12 1 0.708697 0.0455805 0.0730355
87 1 0.715446 0.0449315 0.323602
27 1 0.728379 0.245789 0.0991483
102 1 0.736598 0.267378 0.317001
42 1 0.690997 0.451753 0.13065
117 1 0.723116 0.443295 0.316386
15 1 0.897363 0.103505 0.168956
90 1 0.863047 0.0749478 0.345192
30 1 0.854037 0.276958 0.130621
105 1 0.863113 0.275092 0.346812
45 1 0.866709 0.467927 0.13387
120 1 0.855111 0.461428 0.281471
86 1 0.698427 0.134323 0.358731
11 1 0.685762 0.0982168 0.151887
157 2 0.507251 0.101041 0.495583
22 2 0.500798 0.301782 0.096509
97 2 0.500935 0.2925 0.292835
98 1 0.528441 0.347695 0.293566
10 2 0.706 0.103562 0.0938758
85 2 0.695135 0.100773 0.307085
193 2 0.900132 0.500911 0.495492
25 2 0.707335 0.303666 0.102462
100 2 0.69421 0.308135 0.298408
175 2 0.701059 0.299111 0.492015
13 2 0.904239 0.099673 0.107789
88 2 0.903243 0.100549 0.306046
43 2 0.90064 0.495338 0.0902718
28 2 0.902715 0.297425 0.0987615
103 2 0.895101 0.298504 0.299566
178 2 0.901459 0.301439 0.500978
8 1 0.528759 0.141241 0.117192
83 1 0.543871 0.143752 0.279231
23 1 0.543031 0.335868 0.125802
115 2 0.696067 0.493063 0.29199
190 2 0.706538 0.497397 0.498765
158 1 0.542886 0.144993 0.47105
329 1 0.929498 0.340017 0.927211
254 1 0.926103 0.318645 0.75935
309 1 0.53099 0.100204 0.942451
179 1 0.8866 0.353901 0.529797
249 1 0.554872 0.280539 0.70678
314 1 0.895026 0.128416 0.958483
189 1 0.528402 0.495263 0.554768
264 1 0.521982 0.451975 0.717635
239 1 0.883328 0.110489 0.753012
162 1 0.645006 0.0732517 0.531408
237 1 0.711555 0.0386411 0.689837
312 1 0.664671 0.0561006 0.909448
177 1 0.659011 0.293214 0.536743
252 1 0.695975 0.238871 0.700332
327 1 0.652079 0.275387 0.939208
192 1 0.66996 0.476045 0.543594
267 1 0.704294 0.446728 0.685669
342 1 0.652311 0.477251 0.934902
165 1 0.86999 0.0608481 0.536665
240 1 0.932197 0.055358 0.689084
315 1 0.855068 0.0686273 0.892584
180 1 0.94644 0.277077 0.535426
255 1 0.896535 0.244333 0.703513
330 1 0.903864 0.247331 0.910879
195 1 0.890445 0.506536 0.556138
270 1 0.895843 0.466254 0.741906
345 1 0.844658 0.478268 0.905289
232 2 0.500667 0.0930884 0.701244
164 1 0.863148 0.153875 0.508138
326 1 0.744329 0.306135 0.931555
251 1 0.738764 0.313816 0.745792
235 2 0.707412 0.0988393 0.702584
310 2 0.708315 0.0940279 0.887993
250 2 0.693134 0.300157 0.706615
325 2 0.693318 0.296203 0.898347
238 2 0.89712 0.105927 0.693074
313 2 0.90308 0.1063 0.901478
253 2 0.897383 0.305938 0.706272
328 2 0.891376 0.305173 0.893504
268 2 0.901307 0.495305 0.687778
176 1 0.750276 0.323376 0.520165
311 1 0.730019 0.122579 0.938167
236 1 0.698641 0.10116 0.763585
161 1 0.726263 0.124079 0.549523
323 1 0.55293 0.321189 0.903157
160 2 0.696237 0.0945423 0.504471
163 2 0.900005 0.104519 0.505111
54 1 0.542691 0.693059 0.141417
149 1 0.954572 0.932217 0.314393
69 1 0.517125 0.850589 0.076112
144 1 0.520935 0.887082 0.354294
57 1 0.683573 0.671649 0.139661
132 1 0.716394 0.687279 0.360937
72 1 0.684816 0.85556 0.135217
147 1 0.748729 0.901319 0.339396
60 1 0.905264 0.663748 0.139483
135 1 0.883125 0.637896 0.312472
75 1 0.935115 0.870663 0.121705
150 1 0.884499 0.878318 0.355612
74 1 0.885316 0.953876 0.1322
134 1 0.900057 0.721343 0.360057
187 2 0.501516 0.502073 0.499685
52 2 0.500392 0.707625 0.0989645
127 2 0.503263 0.700793 0.299113
41 1 0.706822 0.54501 0.154466
59 1 0.897606 0.758667 0.118356
142 2 0.506537 0.907014 0.297734
217 2 0.501423 0.898568 0.492517
40 2 0.699169 0.507681 0.105973
71 1 0.742214 0.934262 0.140291
131 1 0.648501 0.725776 0.302434
55 2 0.696565 0.704479 0.0890935
130 2 0.702425 0.695863 0.301484
205 2 0.699231 0.689263 0.489416
70 2 0.703952 0.904164 0.102428
145 2 0.706323 0.90244 0.29463
220 2 0.704036 0.904331 0.497642
56 1 0.748442 0.734704 0.103187
118 2 0.892143 0.508008 0.297673
116 1 0.700317 0.536093 0.335968
58 2 0.907539 0.703584 0.0924552
133 2 0.900117 0.696514 0.303602
208 2 0.902592 0.700021 0.494629
73 2 0.89353 0.906491 0.0935884
148 2 0.906937 0.895483 0.300789
143 1 0.497949 0.967716 0.304451
119 1 0.906568 0.49654 0.356527
113 1 0.545767 0.531855 0.28476
44 1 0.917864 0.54892 0.115491
146 1 0.652674 0.909061 0.324317
68 1 0.512545 0.912115 0.151663
194 1 0.959256 0.516656 0.487755
204 1 0.540968 0.663639 0.541071
279 1 0.535118 0.678018 0.744219
354 1 0.510785 0.649628 0.921778
219 1 0.507182 0.868944 0.546303
374 1 0.938828 0.949793 0.93382
369 1 0.522466 0.886498 0.950434
207 1 0.654256 0.685874 0.53148
282 1 0.72203 0.639866 0.695134
357 1 0.697351 0.660429 0.942175
222 1 0.698615 0.866934 0.546383
297 1 0.661653 0.872018 0.663861
372 1 0.651598 0.874315 0.933357
210 1 0.855539 0.664347 0.512433
285 1 0.842379 0.677748 0.719651
360 1 0.882273 0.63695 0.887967
225 1 0.863891 0.858905 0.531486
300 1 0.856671 0.873224 0.675671
375 1 0.897565 0.86181 0.942238
299 1 0.89789 0.9165 0.752757
224 1 0.932674 0.927215 0.542309
359 1 0.90215 0.701393 0.958439
284 1 0.926646 0.71108 0.755735
209 1 0.940127 0.701652 0.543534
367 2 0.500653 0.898316 0.893971
265 2 0.70431 0.506378 0.701334
340 2 0.69506 0.50831 0.903098
280 2 0.703541 0.698502 0.699981
355 2 0.69863 0.695716 0.891609
295 2 0.70684 0.903085 0.692083
370 2 0.69696 0.900799 0.90104
281 1 0.699338 0.70842 0.760705
343 2 0.8985 0.508308 0.903845
283 2 0.899123 0.695146 0.702894
358 2 0.897357 0.696034 0.897186
298 2 0.904739 0.908231 0.692027
373 2 0.905848 0.908188 0.902437
344 1 0.92585 0.49359 0.957126
269 1 0.945401 0.537383 0.697195
338 1 0.53647 0.51189 0.946886
206 1 0.736791 0.733421 0.510463
371 1 0.74512 0.901313 0.93956
296 1 0.703682 0.884913 0.750932
218 1 0.514063 0.95744 0.50586
221 1 0.74119 0.949612 0.516953
356 1 0.712964 0.751989 0.912381
191 1 0.747858 0.532638 0.527994
266 1 0.689985 0.506615 0.76132
341 1 0.741823 0.515212 0.942711
202 2 0.500779 0.691907 0.503797
223 2 0.890639 0.90623 0.502356
ITEM: TIMESTEP
50
ITEM: NUMBER OF ATOMS
375
ITEM: BOX BOUNDS pp pp pp
-1.0411451931283899e-02 1.5510411451931295e+01
-1.0411451931283899e-02 1.5510411451931295e+01
-1.0411451931283899e-02 1.5510411451931295e+01
ITEM: ATOMS id type xs ys zs
3 1 0.0629192 0.126864 0.140971
78 1 0.115589 0.0572554 0.278547
18 1 0.0490927 0.301722 0.0871321
93 1 0.168012 0.275976 0.284924
33 1 0.116415 0.432738 0.0588809
37 2 0.490421 0.484026 0.100505
6 1 0.306753 0.1048 0.0755724
81 1 0.311645 0.110152 0.370697
21 1 0.244898 0.316909 0.0714898
96 1 0.29932 0.340066 0.358316
36 1 0.296317 0.43902 0.0612841
97 2 0.498192 0.287606 0.289564
1 2 0.0881822 0.100003 0.09154
76 2 0.091338 0.104817 0.309416
151 2 0.101279 0.100715 0.490485
16 2 0.105302 0.303028 0.112467
91 2 0.109748 0.294686 0.277297
32 1 0.0935021 0.463472 0.148568
4 2 0.285775 0.0956423 0.132835
79 2 0.306771 0.102425 0.309708
154 2 0.306898 0.104447 0.481365
19 2 0.297384 0.300545 0.0994282
94 2 0.29504 0.297501 0.313896
169 2 0.303736 0.307421 0.487857
2 1 0.114208 0.0485839 0.113492
77 1 0.12616 0.109742 0.360074
17 1 0.0952138 0.295708 0.172863
92 1 0.100636 0.335683 0.322457
5 1 0.334328 0.0734775 0.163729
80 1 0.263769 0.143081 0.292358
20 1 0.310258 0.244698 0.076659
95 1 0.285842 0.329922 0.262249
9 1 0.474696 0.0883414 0.129913
84 1 0.494042 0.161814 0.265366
24 1 0.473646 0.353293 0.102517
99 1 0.460339 0.333443 0.305971
171 1 0.297009 0.247312 0.475834
109 2 0.310337 0.487655 0.305568
7 2 0.49253 0.102537 0.072611
112 2 0.496837 0.495636 0.30791
172 2 0.490943 0.305721 0.492395
31 2 0.106099 0.483885 0.0917548
34 2 0.304774 0.485711 0.100674
107 1 0.154437 0.473417 0.288524
35 1 0.288459 0.462791 0.155552
110 1 0.354816 0.450157 0.285107
168 1 0.115966 0.252072 0.480036
185 1 0.258296 0.479986 0.467703
153 1 0.138447 0.0790149 0.534652
228 1 0.0503711 0.0827214 0.694173
303 1 0.0588184 0.140552 0.927754
260 1 0.319784 0.445582 0.689657
243 1 0.110966 0.242983 0.684405
318 1 0.0782017 0.253945 0.850838
183 1 0.0972519 0.5109 0.561575
232 2 0.496914 0.0863794 0.707114
338 1 0.454141 0.455673 0.944024
156 1 0.316312 0.148781 0.523182
231 1 0.281958 0.0537627 0.673664
306 1 0.356042 0.112286 0.889329
257 1 0.0893867 0.452098 0.698401
246 1 0.347135 0.26764 0.675674
321 1 0.333786 0.305764 0.972041
309 1 0.464185 0.107789 0.938663
331 2 0.0948061 0.494679 0.898625
166 2 0.104031 0.305475 0.508475
226 2 0.0996648 0.114121 0.713854
301 2 0.1021 0.0988688 0.913885
241 2 0.0943154 0.30107 0.672086
316 2 0.101108 0.297551 0.887944
229 2 0.304743 0.105176 0.698975
304 2 0.295216 0.103216 0.884743
244 2 0.294839 0.297547 0.688857
319 2 0.30128 0.289417 0.92225
152 1 0.055027 0.0600125 0.487822
227 1 0.104991 0.098828 0.77336
302 1 0.112236 0.0689048 0.966824
167 1 0.120592 0.295817 0.567089
242 1 0.0863356 0.326948 0.727492
317 1 0.160458 0.301987 0.871791
155 1 0.347981 0.0607337 0.49566
230 1 0.305221 0.093684 0.759562
305 1 0.272449 0.15847 0.869517
170 1 0.305036 0.310826 0.549418
245 1 0.30832 0.330932 0.738926
320 1 0.31349 0.333331 0.88071
308 1 0.471349 0.114478 0.841621
337 2 0.497009 0.488947 0.914731
174 1 0.445779 0.347645 0.494779
259 2 0.293263 0.498131 0.708051
233 1 0.443886 0.0936302 0.676479
307 2 0.500965 0.0932111 0.891358
247 2 0.497046 0.280928 0.695126
322 2 0.502166 0.285715 0.903551
48 1 0.123369 0.643211 0.05212
123 1 0.0472098 0.736554 0.271705
63 1 0.0902517 0.911754 0.152411
138 1 0.15255 0.915726 0.358626
51 1 0.325143 0.668789 0.126063
126 1 0.266254 0.692564 0.351883
66 1 0.349696 0.892181 0.135555
141 1 0.289369 0.921665 0.342925
128 1 0.449156 0.715605 0.285832
106 2 0.102992 0.503824 0.303755
181 2 0.107586 0.512521 0.500799
46 2 0.104326 0.694111 0.0812693
121 2 0.0900582 0.70061 0.297688
215 1 0.276232 0.832785 0.483687
61 2 0.098005 0.89978 0.0924143
136 2 0.109269 0.920481 0.314956
211 2 0.0840349 0.876938 0.494657
53 1 0.514256 0.666663 0.142162
188 1 0.466137 0.480242 0.460819
67 2 0.4892 0.90201 0.0953041
49 2 0.29748 0.702234 0.082253
124 2 0.296553 0.690756 0.2982
199 2 0.295571 0.696606 0.493387
64 2 0.300551 0.910703 0.103237
139 2 0.297831 0.897004 0.287038
214 2 0.292074 0.892101 0.489465
212 1 0.0359965 0.911281 0.47688
144 1 0.485041 0.923793 0.353524
47 1 0.04472 0.683716 0.0931919
122 1 0.0721315 0.643118 0.28442
62 1 0.107249 0.838864 0.0898724
137 1 0.113778 0.86797 0.282936
197 1 0.0590732 0.734133 0.473388
201 1 0.349506 0.692208 0.463811
50 1 0.237456 0.699201 0.0960747
125 1 0.294177 0.748672 0.277147
65 1 0.274535 0.858447 0.0833463
140 1 0.283049 0.942215 0.247789
52 2 0.494244 0.713382 0.107235
108 1 0.115092 0.527862 0.359242
111 1 0.340451 0.532923 0.334672
184 2 0.308586 0.501297 0.496335
39 1 0.43674 0.514377 0.100031
182 1 0.106789 0.572523 0.486575
198 1 0.14693 0.7138 0.510547
273 1 0.0553705 0.729243 0.662997
348 1 0.0879113 0.737209 0.94849
213 1 0.132033 0.915635 0.49335
288 1 0.0889861 0.899367 0.624971
363 1 0.107668 0.940056 0.965464
336 1 0.292515 0.5271 0.956577
276 1 0.273013 0.692416 0.759512
351 1 0.296965 0.699129 0.968874
216 1 0.320689 0.895217 0.544005
291 1 0.244741 0.882526 0.686927
366 1 0.285745 0.958081 0.894301
256 2 0.0927754 0.509685 0.720203
368 1 0.452178 0.886958 0.860981
271 2 0.0894109 0.704076 0.70784
346 2 0.093695 0.700263 0.899455
286 2 0.103114 0.892636 0.684621
361 2 0.116688 0.898096 0.921179
278 1 0.477996 0.752575 0.707446
263 1 0.508216 0.547751 0.742704
274 2 0.308504 0.698784 0.709483
349 2 0.295697 0.686981 0.908427
289 2 0.304602 0.896755 0.691074
364 2 0.306853 0.900972 0.904097
339 1 0.464843 0.528736 0.880306
293 1 0.478724 0.959638 0.711072
332 1 0.15 0.522075 0.901119
261 1 0.34051 0.535609 0.720935
272 1 0.0939052 0.644568 0.692295
347 1 0.0742112 0.734439 0.851964
258 1 0.108089 0.502873 0.779551
287 1 0.0979867 0.832062 0.694985
362 1 0.103421 0.927809 0.868793
292 2 0.501966 0.904445 0.696359
369 1 0.476923 0.943054 0.936834
335 1 0.298961 0.555464 0.863479
200 1 0.285193 0.639843 0.515143
275 1 0.360731 0.669244 0.723716
350 1 0.237452 0.670062 0.897275
352 2 0.49048 0.701178 0.887023
290 1 0.331916 0.844019 0.707683
365 1 0.257668 0.8695 0.923934
196 2 0.090049 0.690775 0.504431
262 2 0.48824 0.50162 0.706983
353 1 0.444057 0.724762 0.920065
203 1 0.458217 0.723198 0.544412
219 1 0.500824 0.905515 0.550437
187 2 0.498277 0.503486 0.508038
202 2 0.493883 0.681554 0.516184
333 1 0.0548289 0.541075 0.891392
186 1 0.289715 0.513378 0.553789
334 2 0.288464 0.505994 0.898773
104 1 0.896728 0.257988 0.270262
29 1 0.937783 0.334694 0.0709014
89 1 0.964886 0.0884611 0.312221
14 1 0.912516 0.138749 0.0715199
101 1 0.682726 0.262522 0.327789
26 1 0.728135 0.278589 0.167195
12 1 0.70102 0.0614752 0.0508649
87 1 0.697589 0.0651532 0.272476
27 1 0.708308 0.249934 0.0760962
102 1 0.748664 0.325226 0.292666
42 1 0.689595 0.459698 0.0847024
117 1 0.67829 0.426066 0.286156
15 1 0.870768 0.130263 0.15926
90 1 0.895394 0.140454 0.356726
30 1 0.853187 0.317527 0.116311
105 1 0.946184 0.314411 0.332577
194 1 0.958156 0.470197 0.488483
120 1 0.830541 0.512263 0.26538
86 1 0.688254 0.0639027 0.369556
11 1 0.737316 0.0820872 0.139017
157 2 0.520595 0.110741 0.496874
22 2 0.503914 0.299938 0.0961859
173 1 0.539462 0.336518 0.470026
98 1 0.545076 0.315733 0.261035
10 2 0.704761 0.1066 0.0927319
85 2 0.692028 0.102262 0.321416
82 2 0.501017 0.102147 0.279301
25 2 0.710827 0.300001 0.112013
100 2 0.68792 0.317081 0.299516
175 2 0.699299 0.295315 0.487698
13 2 0.91328 0.104473 0.122781