# LAMMPS data file written by OVITO Basic 3.5.4
4608 atoms
3072 bonds
1536 angles
2 atom types
1 bond types
1 angle types
-0.12 41.184 xlo xhi
-0.33 41.394 ylo yhi
-0.353 31.151 zlo zhi

Masses

1 15.9994  # O
2 1.00794  # H

Atoms  # full

1 1 1 0.0 3.493 3.747 9.902
2 1 2 0.0 2.948 4.418 10.386
3 1 2 0.0 2.832 3.084 9.612
4 2 1 0.0 5.253 7.655 9.691
5 2 2 0.0 5.046 7.356 10.619
6 2 2 0.0 4.552 8.321 9.468
7 3 1 0.0 6.505 5.067 2.951
8 3 2 0.0 7.3 5.454 2.516
9 3 2 0.0 5.758 5.637 2.623
10 4 1 0.0 3.607 9.692 8.879
11 4 2 0.0 3.532 10.247 9.674
12 4 2 0.0 4.304 10.112 8.291
13 5 1 0.0 3.977 8.225 3.93
14 5 2 0.0 3.907 9.016 3.302
15 5 2 0.0 4.78 8.377 4.464
16 6 1 0.0 0.409 4.802 2.999
17 6 2 0.0 0.788 5.463 3.64
18 6 2 0.0 0.223 3.975 3.532
19 7 1 0.0 8.154 0.548 4.095
20 7 2 0.0 8.699 0.094 3.401
21 7 2 0.0 8.723 1.295 4.404
22 8 1 0.0 4.559 6.619 1.862
23 8 2 0.0 3.671 6.24 1.63
24 8 2 0.0 4.371 7.221 2.637
25 9 1 0.0 1.64 6.519 4.769
26 9 2 0.0 2.185 5.848 5.253
27 9 2 0.0 2.301 7.182 4.479
28 10 1 0.0 -0.12 2.611 4.558
29 10 2 0.0 0.087 2.91 5.486
30 10 2 0.0 0.581 1.945 4.335
31 11 1 0.0 8.894 5.199 8.084
32 11 2 0.0 8.099 4.812 7.649
33 11 2 0.0 9.641 4.629 7.756
34 12 1 0.0 1.526 0.574 3.746
35 12 2 0.0 1.601 0.019 4.541
36 12 2 0.0 0.829 0.154 3.158
37 13 1 0.0 1.156 2.041 9.063
38 13 2 0.0 1.226 1.25 8.435
39 13 2 0.0 0.353 1.889 9.597
40 14 1 0.0 4.724 5.464 8.132
41 14 2 0.0 4.345 4.803 8.773
42 14 2 0.0 4.91 6.291 8.665
43 15 1 0.0 7.245 9.718 9.228
44 15 2 0.0 6.7 10.172 8.534
45 15 2 0.0 6.676 8.971 9.537
46 16 1 0.0 0.574 3.647 6.995
47 16 2 0.0 1.462 4.026 6.763
48 16 2 0.0 0.762 3.045 7.77
49 17 1 0.0 6.773 8.88 5.497
50 17 2 0.0 7.318 9.551 5.013
51 17 2 0.0 7.434 8.217 5.787
52 18 1 0.0 5.013 2.522 5.708
53 18 2 0.0 5.22 2.223 4.78
54 18 2 0.0 5.714 3.188 5.931
55 19 1 0.0 3.761 -0.066 2.182
56 19 2 0.0 2.966 0.321 2.617
57 19 2 0.0 4.508 0.504 2.51
58 20 1 0.0 6.659 4.559 6.52
59 20 2 0.0 6.734 5.114 5.725
60 20 2 0.0 5.962 4.979 7.108
61 21 1 0.0 6.289 3.092 1.203
62 21 2 0.0 6.359 3.883 1.831
63 21 2 0.0 5.486 3.244 0.669
64 22 1 0.0 9.857 9.935 2.134
65 22 2 0.0 9.478 10.596 1.493
66 22 2 0.0 10.043 9.108 1.601
67 23 1 0.0 2.112 5.681 1.038
68 23 2 0.0 1.567 5.227 1.732
69 23 2 0.0 1.543 6.428 0.729
70 24 1 0.0 5.707 1.486 3.271
71 24 2 0.0 6.595 1.107 3.503
72 24 2 0.0 5.895 2.088 2.496
73 25 1 0.0 8.626 1.386 0.364
74 25 2 0.0 8.081 0.715 -0.12
75 25 2 0.0 7.965 2.049 0.654
76 26 1 0.0 10.386 7.744 0.575
77 26 2 0.0 10.179 8.043 -0.353
78 26 2 0.0 9.685 7.078 0.798
79 27 1 0.0 1.372 10.332 7.315
80 27 2 0.0 2.167 9.945 7.75
81 27 2 0.0 0.625 9.762 7.643
82 28 1 0.0 8.74 5.707 1.387
83 28 2 0.0 8.665 5.152 0.592
84 28 2 0.0 9.437 5.287 1.975
85 29 1 0.0 9.11 7.174 6.336
86 29 2 0.0 9.04 6.383 6.964
87 29 2 0.0 9.913 7.022 5.802
88 30 1 0.0 5.542 0.331 7.267
89 30 2 0.0 5.921 -0.33 6.626
90 30 2 0.0 5.356 1.158 6.734
91 31 1 0.0 3.021 4.585 6.171
92 31 2 0.0 3.566 5.039 6.865
93 31 2 0.0 3.59 3.838 5.862
94 32 1 0.0 9.692 8.78 8.404
95 32 2 0.0 8.804 9.159 8.636
96 32 2 0.0 9.504 8.178 7.629
97 33 1 0.0 13.759 3.747 9.902
98 33 2 0.0 13.214 4.418 10.386
99 33 2 0.0 13.098 3.084 9.612
100 34 1 0.0 15.519 7.655 9.691
101 34 2 0.0 15.312 7.356 10.619
102 34 2 0.0 14.818 8.321 9.468
103 35 1 0.0 16.771 5.067 2.951
104 35 2 0.0 17.566 5.454 2.516
105 35 2 0.0 16.024 5.637 2.623
106 36 1 0.0 13.873 9.692 8.879
107 36 2 0.0 13.798 10.247 9.674
108 36 2 0.0 14.57 10.112 8.291
109 37 1 0.0 14.243 8.225 3.93
110 37 2 0.0 14.173 9.016 3.302
111 37 2 0.0 15.046 8.377 4.464
112 38 1 0.0 10.675 4.802 2.999
113 38 2 0.0 11.054 5.463 3.64
114 38 2 0.0 10.489 3.975 3.532
115 39 1 0.0 18.42 0.548 4.095
116 39 2 0.0 18.965 0.094 3.401
117 39 2 0.0 18.989 1.295 4.404
118 40 1 0.0 14.825 6.619 1.862
119 40 2 0.0 13.937 6.24 1.63
120 40 2 0.0 14.637 7.221 2.637
121 41 1 0.0 11.906 6.519 4.769
122 41 2 0.0 12.451 5.848 5.253
123 41 2 0.0 12.567 7.182 4.479
124 42 1 0.0 10.146 2.611 4.558
125 42 2 0.0 10.353 2.91 5.486
126 42 2 0.0 10.847 1.945 4.335
127 43 1 0.0 19.16 5.199 8.084
128 43 2 0.0 18.365 4.812 7.649
129 43 2 0.0 19.907 4.629 7.756
130 44 1 0.0 11.792 0.574 3.746
131 44 2 0.0 11.867 0.019 4.541
132 44 2 0.0 11.095 0.154 3.158
133 45 1 0.0 11.422 2.041 9.063
134 45 2 0.0 11.492 1.25 8.435
135 45 2 0.0 10.619 1.889 9.597
136 46 1 0.0 14.99 5.464 8.132
137 46 2 0.0 14.611 4.803 8.773
138 46 2 0.0 15.176 6.291 8.665
139 47 1 0.0 17.511 9.718 9.228
140 47 2 0.0 16.966 10.172 8.534
141 47 2 0.0 16.942 8.971 9.537
142 48 1 0.0 10.84 3.647 6.995
143 48 2 0.0 11.728 4.026 6.763
144 48 2 0.0 11.028 3.045 7.77
145 49 1 0.0 17.039 8.88 5.497
146 49 2 0.0 17.584 9.551 5.013
147 49 2 0.0 17.7 8.217 5.787
148 50 1 0.0 15.279 2.522 5.708
149 50 2 0.0 15.486 2.223 4.78
150 50 2 0.0 15.98 3.188 5.931
151 51 1 0.0 14.027 -0.066 2.182
152 51 2 0.0 13.232 0.321 2.617
153 51 2 0.0 14.774 0.504 2.51
154 52 1 0.0 16.925 4.559 6.52
155 52 2 0.0 17.0 5.114 5.725
156 52 2 0.0 16.228 4.979 7.108
157 53 1 0.0 16.555 3.092 1.203
158 53 2 0.0 16.625 3.883 1.831
159 53 2 0.0 15.752 3.244 0.669
160 54 1 0.0 20.123 9.935 2.134
161 54 2 0.0 19.744 10.596 1.493
162 54 2 0.0 20.309 9.108 1.601
163 55 1 0.0 12.378 5.681 1.038
164 55 2 0.0 11.833 5.227 1.732
165 55 2 0.0 11.809 6.428 0.729
166 56 1 0.0 15.973 1.486 3.271
167 56 2 0.0 16.861 1.107 3.503
168 56 2 0.0 16.161 2.088 2.496
169 57 1 0.0 18.892 1.386 0.364
170 57 2 0.0 18.347 0.715 -0.12
171 57 2 0.0 18.231 2.049 0.654
172 58 1 0.0 20.652 7.744 0.575
173 58 2 0.0 20.445 8.043 -0.353
174 58 2 0.0 19.951 7.078 0.798
175 59 1 0.0 11.638 10.332 7.315
176 59 2 0.0 12.433 9.945 7.75
177 59 2 0.0 10.891 9.762 7.643
178 60 1 0.0 19.006 5.707 1.387
179 60 2 0.0 18.931 5.152 0.592
180 60 2 0.0 19.703 5.287 1.975
181 61 1 0.0 19.376 7.174 6.336
182 61 2 0.0 19.306 6.383 6.964
183 61 2 0.0 20.179 7.022 5.802
184 62 1 0.0 15.808 0.331 7.267
185 62 2 0.0 16.187 -0.33 6.626
186 62 2 0.0 15.622 1.158 6.734
187 63 1 0.0 13.287 4.585 6.171
188 63 2 0.0 13.832 5.039 6.865
189 63 2 0.0 13.856 3.838 5.862
190 64 1 0.0 19.958 8.78 8.404
191 64 2 0.0 19.07 9.159 8.636
192 64 2 0.0 19.77 8.178 7.629
193 65 1 0.0 24.025 3.747 9.902
194 65 2 0.0 23.48 4.418 10.386
195 65 2 0.0 23.364 3.084 9.612
196 66 1 0.0 25.785 7.655 9.691
197 66 2 0.0 25.578 7.356 10.619
198 66 2 0.0 25.084 8.321 9.468
199 67 1 0.0 27.037 5.067 2.951
200 67 2 0.0 27.832 5.454 2.516
201 67 2 0.0 26.29 5.637 2.623
202 68 1 0.0 24.139 9.692 8.879
203 68 2 0.0 24.064 10.247 9.674
204 68 2 0.0 24.836 10.112 8.291
205 69 1 0.0 24.509 8.225 3.93
206 69 2 0.0 24.439 9.016 3.302
207 69 2 0.0 25.312 8.377 4.464
208 70 1 0.0 20.941 4.802 2.999
209 70 2 0.0 21.32 5.463 3.64
210 70 2 0.0 20.755 3.975 3.532
211 71 1 0.0 28.686 0.548 4.095
212 71 2 0.0 29.231 0.094 3.401
213 71 2 0.0 29.255 1.295 4.404
214 72 1 0.0 25.091 6.619 1.862
215 72 2 0.0 24.203 6.24 1.63
216 72 2 0.0 24.903 7.221 2.637
217 73 1 0.0 22.172 6.519 4.769
218 73 2 0.0 22.717 5.848 5.253
219 73 2 0.0 22.833 7.182 4.479
220 74 1 0.0 20.412 2.611 4.558
221 74 2 0.0 20.619 2.91 5.486
222 74 2 0.0 21.113 1.945 4.335
223 75 1 0.0 29.426 5.199 8.084
224 75 2 0.0 28.631 4.812 7.649
225 75 2 0.0 30.173 4.629 7.756
226 76 1 0.0 22.058 0.574 3.746
227 76 2 0.0 22.133 0.019 4.541
228 76 2 0.0 21.361 0.154 3.158
229 77 1 0.0 21.688 2.041 9.063
230 77 2 0.0 21.758 1.25 8.435
231 77 2 0.0 20.885 1.889 9.597
232 78 1 0.0 25.256 5.464 8.132
233 78 2 0.0 24.877 4.803 8.773
234 78 2 0.0 25.442 6.291 8.665
235 79 1 0.0 27.777 9.718 9.228
236 79 2 0.0 27.232 10.172 8.534
237 79 2 0.0 27.208 8.971 9.537
238 80 1 0.0 21.106 3.647 6.995
239 80 2 0.0 21.994 4.026 6.763
240 80 2 0.0 21.294 3.045 7.77
241 81 1 0.0 27.305 8.88 5.497
242 81 2 0.0 27.85 9.551 5.013
243 81 2 0.0 27.966 8.217 5.787
244 82 1 0.0 25.545 2.522 5.708
245 82 2 0.0 25.752 2.223 4.78
246 82 2 0.0 26.246 3.188 5.931
247 83 1 0.0 24.293 -0.066 2.182
248 83 2 0.0 23.498 0.321 2.617
249 83 2 0.0 25.04 0.504 2.51
250 84 1 0.0 27.191 4.559 6.52
251 84 2 0.0 27.266 5.114 5.725
252 84 2 0.0 26.494 4.979 7.108
253 85 1 0.0 26.821 3.092 1.203
254 85 2 0.0 26.891 3.883 1.831
255 85 2 0.0 26.018 3.244 0.669
256 86 1 0.0 30.389 9.935 2.134
257 86 2 0.0 30.01 10.596 1.493
258 86 2 0.0 30.575 9.108 1.601
259 87 1 0.0 22.644 5.681 1.038
260 87 2 0.0 22.099 5.227 1.732
261 87 2 0.0 22.075 6.428 0.729
262 88 1 0.0 26.239 1.486 3.271
263 88 2 0.0 27.127 1.107 3.503
264 88 2 0.0 26.427 2.088 2.496
265 89 1 0.0 29.158 1.386 0.364
266 89 2 0.0 28.613 0.715 -0.12
267 89 2 0.0 28.497 2.049 0.654
268 90 1 0.0 30.918 7.744 0.575
269 90 2 0.0 30.711 8.043 -0.353
270 90 2 0.0 30.217 7.078 0.798
271 91 1 0.0 21.904 10.332 7.315
272 91 2 0.0 22.699 9.945 7.75
273 91 2 0.0 21.157 9.762 7.643
274 92 1 0.0 29.272 5.707 1.387
275 92 2 0.0 29.197 5.152 0.592
276 92 2 0.0 29.969 5.287 1.975
277 93 1 0.0 29.642 7.174 6.336
278 93 2 0.0 29.572 6.383 6.964
279 93 2 0.0 30.445 7.022 5.802
280 94 1 0.0 26.074 0.331 7.267
281 94 2 0.0 26.453 -0.33 6.626
282 94 2 0.0 25.888 1.158 6.734
283 95 1 0.0 23.553 4.585 6.171
284 95 2 0.0 24.098 5.039 6.865
285 95 2 0.0 24.122 3.838 5.862
286 96 1 0.0 30.224 8.78 8.404
287 96 2 0.0 29.336 9.159 8.636
288 96 2 0.0 30.036 8.178 7.629
289 97 1 0.0 34.291 3.747 9.902
290 97 2 0.0 33.746 4.418 10.386
291 97 2 0.0 33.63 3.084 9.612
292 98 1 0.0 36.051 7.655 9.691
293 98 2 0.0 35.844 7.356 10.619
294 98 2 0.0 35.35 8.321 9.468
295 99 1 0.0 37.303 5.067 2.951
296 99 2 0.0 38.098 5.454 2.516
297 99 2 0.0 36.556 5.637 2.623
298 100 1 0.0 34.405 9.692 8.879
299 100 2 0.0 34.33 10.247 9.674
300 100 2 0.0 35.102 10.112 8.291
301 101 1 0.0 34.775 8.225 3.93
302 101 2 0.0 34.705 9.016 3.302
303 101 2 0.0 35.578 8.377 4.464
304 102 1 0.0 31.207 4.802 2.999
305 102 2 0.0 31.586 5.463 3.64
306 102 2 0.0 31.021 3.975 3.532
307 103 1 0.0 38.952 0.548 4.095
308 103 2 0.0 39.497 0.094 3.401
309 103 2 0.0 39.521 1.295 4.404
310 104 1 0.0 35.357 6.619 1.862
311 104 2 0.0 34.469 6.24 1.63
312 104 2 0.0 35.169 7.221 2.637
313 105 1 0.0 32.438 6.519 4.769
314 105 2 0.0 32.983 5.848 5.253
315 105 2 0.0 33.099 7.182 4.479
316 106 1 0.0 30.678 2.611 4.558
317 106 2 0.0 30.885 2.91 5.486
318 106 2 0.0 31.379 1.945 4.335
319 107 1 0.0 39.692 5.199 8.084
320 107 2 0.0 38.897 4.812 7.649
321 107 2 0.0 40.439 4.629 7.756
322 108 1 0.0 32.324 0.574 3.746
323 108 2 0.0 32.399 0.019 4.541
324 108 2 0.0 31.627 0.154 3.158
325 109 1 0.0 31.954 2.041 9.063
326 109 2 0.0 32.024 1.25 8.435
327 109 2 0.0 31.151 1.889 9.597
328 110 1 0.0 35.522 5.464 8.132
329 110 2 0.0 35.143 4.803 8.773
330 110 2 0.0 35.708 6.291 8.665
331 111 1 0.0 38.043 9.718 9.228
332 111 2 0.0 37.498 10.172 8.534
333 111 2 0.0 37.474 8.971 9.537
334 112 1 0.0 31.372 3.647 6.995
335 112 2 0.0 32.26 4.026 6.763
336 112 2 0.0 31.56 3.045 7.77
337 113 1 0.0 37.571 8.88 5.497
338 113 2 0.0 38.116 9.551 5.013
339 113 2 0.0 38.232 8.217 5.787
340 114 1 0.0 35.811 2.522 5.708
341 114 2 0.0 36.018 2.223 4.78
342 114 2 0.0 36.512 3.188 5.931
343 115 1 0.0 34.559 -0.066 2.182
344 115 2 0.0 33.764 0.321 2.617
345 115 2 0.0 35.306 0.504 2.51
346 116 1 0.0 37.457 4.559 6.52
347 116 2 0.0 37.532 5.114 5.725
348 116 2 0.0 36.76 4.979 7.108
349 117 1 0.0 37.087 3.092 1.203
350 117 2 0.0 37.157 3.883 1.831
351 117 2 0.0 36.284 3.244 0.669
352 118 1 0.0 40.655 9.935 2.134
353 118 2 0.0 40.276 10.596 1.493
354 118 2 0.0 40.841 9.108 1.601
355 119 1 0.0 32.91 5.681 1.038
356 119 2 0.0 32.365 5.227 1.732
357 119 2 0.0 32.341 6.428 0.729
358 120 1 0.0 36.505 1.486 3.271
359 120 2 0.0 37.393 1.107 3.503
360 120 2 0.0 36.693 2.088 2.496
361 121 1 0.0 39.424 1.386 0.364
362 121 2 0.0 38.879 0.715 -0.12
363 121 2 0.0 38.763 2.049 0.654
364 122 1 0.0 41.184 7.744 0.575
365 122 2 0.0 40.977 8.043 -0.353
366 122 2 0.0 40.483 7.078 0.798
367 123 1 0.0 32.17 10.332 7.315
368 123 2 0.0 32.965 9.945 7.75
369 123 2 0.0 31.423 9.762 7.643
370 124 1 0.0 39.538 5.707 1.387
371 124 2 0.0 39.463 5.152 0.592
372 124 2 0.0 40.235 5.287 1.975
373 125 1 0.0 39.908 7.174 6.336
374 125 2 0.0 39.838 6.383 6.964
375 125 2 0.0 40.711 7.022 5.802
376 126 1 0.0 36.34 0.331 7.267
377 126 2 0.0 36.719 -0.33 6.626
378 126 2 0.0 36.154 1.158 6.734
379 127 1 0.0 33.819 4.585 6.171
380 127 2 0.0 34.364 5.039 6.865
381 127 2 0.0 34.388 3.838 5.862
382 128 1 0.0 40.49 8.78 8.404
383 128 2 0.0 39.602 9.159 8.636
384 128 2 0.0 40.302 8.178 7.629
385 129 1 0.0 3.493 14.013 9.902
386 129 2 0.0 2.948 14.684 10.386
387 129 2 0.0 2.832 13.35 9.612
388 130 1 0.0 5.253 17.921 9.691
389 130 2 0.0 5.046 17.622 10.619
390 130 2 0.0 4.552 18.587 9.468
391 131 1 0.0 6.505 15.333 2.951
392 131 2 0.0 7.3 15.72 2.516
393 131 2 0.0 5.758 15.903 2.623
394 132 1 0.0 3.607 19.958 8.879
395 132 2 0.0 3.532 20.513 9.674
396 132 2 0.0 4.304 20.378 8.291
397 133 1 0.0 3.977 18.491 3.93
398 133 2 0.0 3.907 19.282 3.302
399 133 2 0.0 4.78 18.643 4.464
400 134 1 0.0 0.409 15.068 2.999
401 134 2 0.0 0.788 15.729 3.64
402 134 2 0.0 0.223 14.241 3.532
403 135 1 0.0 8.154 10.814 4.095
404 135 2 0.0 8.699 10.36 3.401
405 135 2 0.0 8.723 11.561 4.404
406 136 1 0.0 4.559 16.885 1.862
407 136 2 0.0 3.671 16.506 1.63
408 136 2 0.0 4.371 17.487 2.637
409 137 1 0.0 1.64 16.785 4.769
410 137 2 0.0 2.185 16.114 5.253
411 137 2 0.0 2.301 17.448 4.479
412 138 1 0.0 -0.12 12.877 4.558
413 138 2 0.0 0.087 13.176 5.486
414 138 2 0.0 0.581 12.211 4.335
415 139 1 0.0 8.894 15.465 8.084
416 139 2 0.0 8.099 15.078 7.649
417 139 2 0.0 9.641 14.895 7.756
418 140 1 0.0 1.526 10.84 3.746
419 140 2 0.0 1.601 10.285 4.541
420 140 2 0.0 0.829 10.42 3.158
421 141 1 0.0 1.156 12.307 9.063
422 141 2 0.0 1.226 11.516 8.435
423 141 2 0.0 0.353 12.155 9.597
424 142 1 0.0 4.724 15.73 8.132
425 142 2 0.0 4.345 15.069 8.773
426 142 2 0.0 4.91 16.557 8.665
427 143 1 0.0 7.245 19.984 9.228
428 143 2 0.0 6.7 20.438 8.534
429 143 2 0.0 6.676 19.237 9.537
430 144 1 0.0 0.574 13.913 6.995
431 144 2 0.0 1.462 14.292 6.763
432 144 2 0.0 0.762 13.311 7.77
433 145 1 0.0 6.773 19.146 5.497
434 145 2 0.0 7.318 19.817 5.013
435 145 2 0.0 7.434 18.483 5.787
436 146 1 0.0 5.013 12.788 5.708
437 146 2 0.0 5.22 12.489 4.78
438 146 2 0.0 5.714 13.454 5.931
439 147 1 0.0 3.761 10.2 2.182
440 147 2 0.0 2.966 10.587 2.617
441 147 2 0.0 4.508 10.77 2.51
442 148 1 0.0 6.659 14.825 6.52
443 148 2 0.0 6.734 15.38 5.725
444 148 2 0.0 5.962 15.245 7.108
445 149 1 0.0 6.289 13.358 1.203
446 149 2 0.0 6.359 14.149 1.831
447 149 2 0.0 5.486 13.51 0.669
448 150 1 0.0 9.857 20.201 2.134
449 150 2 0.0 9.478 20.862 1.493
450 150 2 0.0 10.043 19.374 1.601
451 151 1 0.0 2.112 15.947 1.038
452 151 2 0.0 1.567 15.493 1.732
453 151 2 0.0 1.543 16.694 0.729
454 152 1 0.0 5.707 11.752 3.271
455 152 2 0.0 6.595 11.373 3.503
456 152 2 0.0 5.895 12.354 2.496
457 153 1 0.0 8.626 11.652 0.364
458 153 2 0.0 8.081 10.981 -0.12
459 153 2 0.0 7.965 12.315 0.654
460 154 1 0.0 10.386 18.01 0.575
461 154 2 0.0 10.179 18.309 -0.353
462 154 2 0.0 9.685 17.344 0.798
463 155 1 0.0 1.372 20.598 7.315
464 155 2 0.0 2.167 20.211 7.75
465 155 2 0.0 0.625 20.028 7.643
466 156 1 0.0 8.74 15.973 1.387
467 156 2 0.0 8.665 15.418 0.592
468 156 2 0.0 9.437 15.553 1.975
469 157 1 0.0 9.11 17.44 6.336
470 157 2 0.0 9.04 16.649 6.964
471 157 2 0.0 9.913 17.288 5.802
472 158 1 0.0 5.542 10.597 7.267
473 158 2 0.0 5.921 9.936 6.626
474 158 2 0.0 5.356 11.424 6.734
475 159 1 0.0 3.021 14.851 6.171
476 159 2 0.0 3.566 15.305 6.865
477 159 2 0.0 3.59 14.104 5.862
478 160 1 0.0 9.692 19.046 8.404
479 160 2 0.0 8.804 19.425 8.636
480 160 2 0.0 9.504 18.444 7.629
481 161 1 0.0 13.759 14.013 9.902
482 161 2 0.0 13.214 14.684 10.386
483 161 2 0.0 13.098 13.35 9.612
484 162 1 0.0 15.519 17.921 9.691
485 162 2 0.0 15.312 17.622 10.619
486 162 2 0.0 14.818 18.587 9.468
487 163 1 0.0 16.771 15.333 2.951
488 163 2 0.0 17.566 15.72 2.516
489 163 2 0.0 16.024 15.903 2.623
490 164 1 0.0 13.873 19.958 8.879
491 164 2 0.0 13.798 20.513 9.674
492 164 2 0.0 14.57 20.378 8.291
493 165 1 0.0 14.243 18.491 3.93
494 165 2 0.0 14.173 19.282 3.302
495 165 2 0.0 15.046 18.643 4.464
496 166 1 0.0 10.675 15.068 2.999
497 166 2 0.0 11.054 15.729 3.64
498 166 2 0.0 10.489 14.241 3.532
499 167 1 0.0 18.42 10.814 4.095
500 167 2 0.0 18.965 10.36 3.401
501 167 2 0.0 18.989 11.561 4.404
502 168 1 0.0 14.825 16.885 1.862
503 168 2 0.0 13.937 16.506 1.63
504 168 2 0.0 14.637 17.487 2.637
505 169 1 0.0 11.906 16.785 4.769
506 169 2 0.0 12.451 16.114 5.253
507 169 2 0.0 12.567 17.448 4.479
508 170 1 0.0 10.146 12.877 4.558
509 170 2 0.0 10.353 13.176 5.486
510 170 2 0.0 10.847 12.211 4.335
511 171 1 0.0 19.16 15.465 8.084
512 171 2 0.0 18.365 15.078 7.649
513 171 2 0.0 19.907 14.895 7.756
514 172 1 0.0 11.792 10.84 3.746
515 172 2 0.0 11.867 10.285 4.541
516 172 2 0.0 11.095 10.42 3.158
517 173 1 0.0 11.422 12.307 9.063
518 173 2 0.0 11.492 11.516 8.435
519 173 2 0.0 10.619 12.155 9.597
520 174 1 0.0 14.99 15.73 8.132
521 174 2 0.0 14.611 15.069 8.773
522 174 2 0.0 15.176 16.557 8.665
523 175 1 0.0 17.511 19.984 9.228
524 175 2 0.0 16.966 20.438 8.534
525 175 2 0.0 16.942 19.237 9.537
526 176 1 0.0 10.84 13.913 6.995
527 176 2 0.0 11.728 14.292 6.763
528 176 2 0.0 11.028 13.311 7.77
529 177 1 0.0 17.039 19.146 5.497
530 177 2 0.0 17.584 19.817 5.013
531 177 2 0.0 17.7 18.483 5.787
532 178 1 0.0 15.279 12.788 5.708
533 178 2 0.0 15.486 12.489 4.78
534 178 2 0.0 15.98 13.454 5.931
535 179 1 0.0 14.027 10.2 2.182
536 179 2 0.0 13.232 10.587 2.617
537 179 2 0.0 14.774 10.77 2.51
538 180 1 0.0 16.925 14.825 6.52
539 180 2 0.0 17.0 15.38 5.725
540 180 2 0.0 16.228 15.245 7.108
541 181 1 0.0 16.555 13.358 1.203
542 181 2 0.0 16.625 14.149 1.831
543 181 2 0.0 15.752 13.51 0.669
544 182 1 0.0 20.123 20.201 2.134
545 182 2 0.0 19.744 20.862 1.493
546 182 2 0.0 20.309 19.374 1.601
547 183 1 0.0 12.378 15.947 1.038
548 183 2 0.0 11.833 15.493 1.732
549 183 2 0.0 11.809 16.694 0.729
550 184 1 0.0 15.973 11.752 3.271
551 184 2 0.0 16.861 11.373 3.503
552 184 2 0.0 16.161 12.354 2.496
553 185 1 0.0 18.892 11.652 0.364
554 185 2 0.0 18.347 10.981 -0.12
555 185 2 0.0 18.231 12.315 0.654
556 186 1 0.0 20.652 18.01 0.575
557 186 2 0.0 20.445 18.309 -0.353
558 186 2 0.0 19.951 17.344 0.798
559 187 1 0.0 11.638 20.598 7.315
560 187 2 0.0 12.433 20.211 7.75
561 187 2 0.0 10.891 20.028 7.643
562 188 1 0.0 19.006 15.973 1.387
563 188 2 0.0 18.931 15.418 0.592
564 188 2 0.0 19.703 15.553 1.975
565 189 1 0.0 19.376 17.44 6.336
566 189 2 0.0 19.306 16.649 6.964
567 189 2 0.0 20.179 17.288 5.802
568 190 1 0.0 15.808 10.597 7.267
569 190 2 0.0 16.187 9.936 6.626
570 190 2 0.0 15.622 11.424 6.734
571 191 1 0.0 13.287 14.851 6.171
572 191 2 0.0 13.832 15.305 6.865
573 191 2 0.0 13.856 14.104 5.862
574 192 1 0.0 19.958 19.046 8.404
575 192 2 0.0 19.07 19.425 8.636
576 192 2 0.0 19.77 18.444 7.629
577 193 1 0.0 24.025 14.013 9.902
578 193 2 0.0 23.48 14.684 10.386
579 193 2 0.0 23.364 13.35 9.612
580 194 1 0.0 25.785 17.921 9.691
581 194 2 0.0 25.578 17.622 10.619
582 194 2 0.0 25.084 18.587 9.468
583 195 1 0.0 27.037 15.333 2.951
584 195 2 0.0 27.832 15.72 2.516
585 195 2 0.0 26.29 15.903 2.623
586 196 1 0.0 24.139 19.958 8.879
587 196 2 0.0 24.064 20.513 9.674
588 196 2 0.0 24.836 20.378 8.291
589 197 1 0.0 24.509 18.491 3.93
590 197 2 0.0 24.439 19.282 3.302
591 197 2 0.0 25.312 18.643 4.464
592 198 1 0.0 20.941 15.068 2.999
593 198 2 0.0 21.32 15.729 3.64
594 198 2 0.0 20.755 14.241 3.532
595 199 1 0.0 28.686 10.814 4.095
596 199 2 0.0 29.231 10.36 3.401
597 199 2 0.0 29.255 11.561 4.404
598 200 1 0.0 25.091 16.885 1.862
599 200 2 0.0 24.203 16.506 1.63
600 200 2 0.0 24.903 17.487 2.637
601 201 1 0.0 22.172 16.785 4.769
602 201 2 0.0 22.717 16.114 5.253
603 201 2 0.0 22.833 17.448 4.479
604 202 1 0.0 20.412 12.877 4.558
605 202 2 0.0 20.619 13.176 5.486
606 202 2 0.0 21.113 12.211 4.335
607 203 1 0.0 29.426 15.465 8.084
608 203 2 0.0 28.631 15.078 7.649
609 203 2 0.0 30.173 14.895 7.756
610 204 1 0.0 22.058 10.84 3.746
611 204 2 0.0 22.133 10.285 4.541
612 204 2 0.0 21.361 10.42 3.158
613 205 1 0.0 21.688 12.307 9.063
614 205 2 0.0 21.758 11.516 8.435
615 205 2 0.0 20.885 12.155 9.597
616 206 1 0.0 25.256 15.73 8.132
617 206 2 0.0 24.877 15.069 8.773
618 206 2 0.0 25.442 16.557 8.665
619 207 1 0.0 27.777 19.984 9.228
620 207 2 0.0 27.232 20.438 8.534
621 207 2 0.0 27.208 19.237 9.537
622 208 1 0.0 21.106 13.913 6.995
623 208 2 0.0 21.994 14.292 6.763
624 208 2 0.0 21.294 13.311 7.77
625 209 1 0.0 27.305 19.146 5.497
626 209 2 0.0 27.85 19.817 5.013
627 209 2 0.0 27.966 18.483 5.787
628 210 1 0.0 25.545 12.788 5.708
629 210 2 0.0 25.752 12.489 4.78
630 210 2 0.0 26.246 13.454 5.931
631 211 1 0.0 24.293 10.2 2.182
632 211 2 0.0 23.498 10.587 2.617
633 211 2 0.0 25.04 10.77 2.51
634 212 1 0.0 27.191 14.825 6.52
635 212 2 0.0 27.266 15.38 5.725
636 212 2 0.0 26.494 15.245 7.108
637 213 1 0.0 26.821 13.358 1.203
638 213 2 0.0 26.891 14.149 1.831
639 213 2 0.0 26.018 13.51 0.669
640 214 1 0.0 30.389 20.201 2.134
641 214 2 0.0 30.01 20.862 1.493
642 214 2 0.0 30.575 19.374 1.601
643 215 1 0.0 22.644 15.947 1.038
644 215 2 0.0 22.099 15.493 1.732
645 215 2 0.0 22.075 16.694 0.729
646 216 1 0.0 26.239 11.752 3.271
647 216 2 0.0 27.127 11.373 3.503
648 216 2 0.0 26.427 12.354 2.496
649 217 1 0.0 29.158 11.652 0.364
650 217 2 0.0 28.613 10.981 -0.12
651 217 2 0.0 28.497 12.315 0.654
652 218 1 0.0 30.918 18.01 0.575
653 218 2 0.0 30.711 18.309 -0.353
654 218 2 0.0 30.217 17.344 0.798
655 219 1 0.0 21.904 20.598 7.315
656 219 2 0.0 22.699 20.211 7.75
657 219 2 0.0 21.157 20.028 7.643
658 220 1 0.0 29.272 15.973 1.387
659 220 2 0.0 29.197 15.418 0.592
660 220 2 0.0 29.969 15.553 1.975
661 221 1 0.0 29.642 17.44 6.336
662 221 2 0.0 29.572 16.649 6.964
663 221 2 0.0 30.445 17.288 5.802
664 222 1 0.0 26.074 10.597 7.267
665 222 2 0.0 26.453 9.936 6.626
666 222 2 0.0 25.888 11.424 6.734
667 223 1 0.0 23.553 14.851 6.171
668 223 2 0.0 24.098 15.305 6.865
669 223 2 0.0 24.122 14.104 5.862
670 224 1 0.0 30.224 19.046 8.404
671 224 2 0.0 29.336 19.425 8.636
672 224 2 0.0 30.036 18.444 7.629
673 225 1 0.0 34.291 14.013 9.902
674 225 2 0.0 33.746 14.684 10.386
675 225 2 0.0 33.63 13.35 9.612
676 226 1 0.0 36.051 17.921 9.691
677 226 2 0.0 35.844 17.622 10.619
678 226 2 0.0 35.35 18.587 9.468
679 227 1 0.0 37.303 15.333 2.951
680 227 2 0.0 38.098 15.72 2.516
681 227 2 0.0 36.556 15.903 2.623
682 228 1 0.0 34.405 19.958 8.879
683 228 2 0.0 34.33 20.513 9.674
684 228 2 0.0 35.102 20.378 8.291
685 229 1 0.0 34.775 18.491 3.93
686 229 2 0.0 34.705 19.282 3.302
687 229 2 0.0 35.578 18.643 4.464
688 230 1 0.0 31.207 15.068 2.999
689 230 2 0.0 31.586 15.729 3.64
690 230 2 0.0 31.021 14.241 3.532
691 231 1 0.0 38.952 10.814 4.095
692 231 2 0.0 39.497 10.36 3.401
693 231 2 0.0 39.521 11.561 4.404
694 232 1 0.0 35.357 16.885 1.862
695 232 2 0.0 34.469 16.506 1.63
696 232 2 0.0 35.169 17.487 2.637
697 233 1 0.0 32.438 16.785 4.769
698 233 2 0.0 32.983 16.114 5.253
699 233 2 0.0 33.099 17.448 4.479
700 234 1 0.0 30.678 12.877 4.558
701 234 2 0.0 30.885 13.176 5.486
702 234 2 0.0 31.379 12.211 4.335
703 235 1 0.0 39.692 15.465 8.084
704 235 2 0.0 38.897 15.078 7.649
705 235 2 0.0 40.439 14.895 7.756
706 236 1 0.0 32.324 10.84 3.746
707 236 2 0.0 32.399 10.285 4.541
708 236 2 0.0 31.627 10.42 3.158
709 237 1 0.0 31.954 12.307 9.063
710 237 2 0.0 32.024 11.516 8.435
711 237 2 0.0 31.151 12.155 9.597
712 238 1 0.0 35.522 15.73 8.132
713 238 2 0.0 35.143 15.069 8.773
714 238 2 0.0 35.708 16.557 8.665
715 239 1 0.0 38.043 19.984 9.228
716 239 2 0.0 37.498 20.438 8.534
717 239 2 0.0 37.474 19.237 9.537
718 240 1 0.0 31.372 13.913 6.995
719 240 2 0.0 32.26 14.292 6.763
720 240 2 0.0 31.56 13.311 7.77
721 241 1 0.0 37.571 19.146 5.497
722 241 2 0.0 38.116 19.817 5.013
723 241 2 0.0 38.232 18.483 5.787
724 242 1 0.0 35.811 12.788 5.708
725 242 2 0.0 36.018 12.489 4.78
726 242 2 0.0 36.512 13.454 5.931
727 243 1 0.0 34.559 10.2 2.182
728 243 2 0.0 33.764 10.587 2.617
729 243 2 0.0 35.306 10.77 2.51
730 244 1 0.0 37.457 14.825 6.52
731 244 2 0.0 37.532 15.38 5.725
732 244 2 0.0 36.76 15.245 7.108
733 245 1 0.0 37.087 13.358 1.203
734 245 2 0.0 37.157 14.149 1.831
735 245 2 0.0 36.284 13.51 0.669
736 246 1 0.0 40.655 20.201 2.134
737 246 2 0.0 40.276 20.862 1.493
738 246 2 0.0 40.841 19.374 1.601
739 247 1 0.0 32.91 15.947 1.038
740 247 2 0.0 32.365 15.493 1.732
741 247 2 0.0 32.341 16.694 0.729
742 248 1 0.0 36.505 11.752 3.271
743 248 2 0.0 37.393 11.373 3.503
744 248 2 0.0 36.693 12.354 2.496
745 249 1 0.0 39.424 11.652 0.364
746 249 2 0.0 38.879 10.981 -0.12
747 249 2 0.0 38.763 12.315 0.654
748 250 1 0.0 41.184 18.01 0.575
749 250 2 0.0 40.977 18.309 -0.353
750 250 2 0.0 40.483 17.344 0.798
751 251 1 0.0 32.17 20.598 7.315
752 251 2 0.0 32.965 20.211 7.75
753 251 2 0.0 31.423 20.028 7.643
754 252 1 0.0 39.538 15.973 1.387
755 252 2 0.0 39.463 15.418 0.592
756 252 2 0.0 40.235 15.553 1.975
757 253 1 0.0 39.908 17.44 6.336
758 253 2 0.0 39.838 16.649 6.964
759 253 2 0.0 40.711 17.288 5.802
760 254 1 0.0 36.34 10.597 7.267
761 254 2 0.0 36.719 9.936 6.626
762 254 2 0.0 36.154 11.424 6.734
763 255 1 0.0 33.819 14.851 6.171
764 255 2 0.0 34.364 15.305 6.865
765 255 2 0.0 34.388 14.104 5.862
766 256 1 0.0 40.49 19.046 8.404
767 256 2 0.0 39.602 19.425 8.636
768 256 2 0.0 40.302 18.444 7.629
769 257 1 0.0 3.493 24.279 9.902
770 257 2 0.0 2.948 24.95 10.386
771 257 2 0.0 2.832 23.616 9.612
772 258 1 0.0 5.253 28.187 9.691
773 258 2 0.0 5.046 27.888 10.619
774 258 2 0.0 4.552 28.853 9.468
775 259 1 0.0 6.505 25.599 2.951
776 259 2 0.0 7.3 25.986 2.516
777 259 2 0.0 5.758 26.169 2.623
778 260 1 0.0 3.607 30.224 8.879
779 260 2 0.0 3.532 30.779 9.674
780 260 2 0.0 4.304 30.644 8.291
781 261 1 0.0 3.977 28.757 3.93
782 261 2 0.0 3.907 29.548 3.302
783 261 2 0.0 4.78 28.909 4.464
784 262 1 0.0 0.409 25.334 2.999
785 262 2 0.0 0.788 25.995 3.64
786 262 2 0.0 0.223 24.507 3.532
787 263 1 0.0 8.154 21.08 4.095
788 263 2 0.0 8.699 20.626 3.401
789 263 2 0.0 8.723 21.827 4.404
790 264 1 0.0 4.559 27.151 1.862
791 264 2 0.0 3.671 26.772 1.63
792 264 2 0.0 4.371 27.753 2.637
793 265 1 0.0 1.64 27.051 4.769
794 265 2 0.0 2.185 26.38 5.253
795 265 2 0.0 2.301 27.714 4.479
796 266 1 0.0 -0.12 23.143 4.558
797 266 2 0.0 0.087 23.442 5.486
798 266 2 0.0 0.581 22.477 4.335
799 267 1 0.0 8.894 25.731 8.084
800 267 2 0.0 8.099 25.344 7.649
801 267 2 0.0 9.641 25.161 7.756
802 268 1 0.0 1.526 21.106 3.746
803 268 2 0.0 1.601 20.551 4.541
804 268 2 0.0 0.829 20.686 3.158
805 269 1 0.0 1.156 22.573 9.063
806 269 2 0.0 1.226 21.782 8.435
807 269 2 0.0 0.353 22.421 9.597
808 270 1 0.0 4.724 25.996 8.132
809 270 2 0.0 4.345 25.335 8.773
810 270 2 0.0 4.91 26.823 8.665
811 271 1 0.0 7.245 30.25 9.228
812 271 2 0.0 6.7 30.704 8.534
813 271 2 0.0 6.676 29.503 9.537
814 272 1 0.0 0.574 24.179 6.995
815 272 2 0.0 1.462 24.558 6.763
816 272 2 0.0 0.762 23.577 7.77
817 273 1 0.0 6.773 29.412 5.497
818 273 2 0.0 7.318 30.083 5.013
819 273 2 0.0 7.434 28.749 5.787
820 274 1 0.0 5.013 23.054 5.708
821 274 2 0.0 5.22 22.755 4.78
822 274 2 0.0 5.714 23.72 5.931
823 275 1 0.0 3.761 20.466 2.182
824 275 2 0.0 2.966 20.853 2.617
825 275 2 0.0 4.508 21.036 2.51
826 276 1 0.0 6.659 25.091 6.52
827 276 2 0.0 6.734 25.646 5.725
828 276 2 0.0 5.962 25.511 7.108
829 277 1 0.0 6.289 23.624 1.203
830 277 2 0.0 6.359 24.415 1.831
831 277 2 0.0 5.486 23.776 0.669
832 278 1 0.0 9.857 30.467 2.134
833 278 2 0.0 9.478 31.128 1.493
834 278 2 0.0 10.043 29.64 1.601
835 279 1 0.0 2.112 26.213 1.038
836 279 2 0.0 1.567 25.759 1.732
837 279 2 0.0 1.543 26.96 0.729
838 280 1 0.0 5.707 22.018 3.271
839 280 2 0.0 6.595 21.639 3.503
840 280 2 0.0 5.895 22.62 2.496
841 281 1 0.0 8.626 21.918 0.364
842 281 2 0.0 8.081 21.247 -0.12
843 281 2 0.0 7.965 22.581 0.654
844 282 1 0.0 10.386 28.276 0.575
845 282 2 0.0 10.179 28.575 -0.353
846 282 2 0.0 9.685 27.61 0.798
847 283 1 0.0 1.372 30.864 7.315
848 283 2 0.0 2.167 30.477 7.75
849 283 2 0.0 0.625 30.294 7.643
850 284 1 0.0 8.74 26.239 1.387
851 284 2 0.0 8.665 25.684 0.592
852 284 2 0.0 9.437 25.819 1.975
853 285 1 0.0 9.11 27.706 6.336
854 285 2 0.0 9.04 26.915 6.964
855 285 2 0.0 9.913 27.554 5.802
856 286 1 0.0 5.542 20.863 7.267
857 286 2 0.0 5.921 20.202 6.626
858 286 2 0.0 5.356 21.69 6.734
859 287 1 0.0 3.021 25.117 6.171
860 287 2 0.0 3.566 25.571 6.865
861 287 2 0.0 3.59 24.37 5.862
862 288 1 0.0 9.692 29.312 8.404
863 288 2 0.0 8.804 29.691 8.636
864 288 2 0.0 9.504 28.71 7.629
865 289 1 0.0 13.759 24.279 9.902
866 289 2 0.0 13.214 24.95 10.386
867 289 2 0.0 13.098 23.616 9.612
868 290 1 0.0 15.519 28.187 9.691
869 290 2 0.0 15.312 27.888 10.619
870 290 2 0.0 14.818 28.853 9.468
871 291 1 0.0 16.771 25.599 2.951
872 291 2 0.0 17.566 25.986 2.516
873 291 2 0.0 16.024 26.169 2.623
874 292 1 0.0 13.873 30.224 8.879
875 292 2 0.0 13.798 30.779 9.674
876 292 2 0.0 14.57 30.644 8.291
877 293 1 0.0 14.243 28.757 3.93
878 293 2 0.0 14.173 29.548 3.302
879 293 2 0.0 15.046 28.909 4.464
880 294 1 0.0 10.675 25.334 2.999
881 294 2 0.0 11.054 25.995 3.64
882 294 2 0.0 10.489 24.507 3.532
883 295 1 0.0 18.42 21.08 4.095
884 295 2 0.0 18.965 20.626 3.401
885 295 2 0.0 18.989 21.827 4.404
886 296 1 0.0 14.825 27.151 1.862
887 296 2 0.0 13.937 26.772 1.63
888 296 2 0.0 14.637 27.753 2.637
889 297 1 0.0 11.906 27.051 4.769
890 297 2 0.0 12.451 26.38 5.253
891 297 2 0.0 12.567 27.714 4.479
892 298 1 0.0 10.146 23.143 4.558
893 298 2 0.0 10.353 23.442 5.486
894 298 2 0.0 10.847 22.477 4.335
895 299 1 0.0 19.16 25.731 8.084
896 299 2 0.0 18.365 25.344 7.649
897 299 2 0.0 19.907 25.161 7.756
898 300 1 0.0 11.792 21.106 3.746
899 300 2 0.0 11.867 20.551 4.541
900 300 2 0.0 11.095 20.686 3.158
901 301 1 0.0 11.422 22.573 9.063
902 301 2 0.0 11.492 21.782 8.435
903 301 2 0.0 10.619 22.421 9.597
904 302 1 0.0 14.99 25.996 8.132
905 302 2 0.0 14.611 25.335 8.773
906 302 2 0.0 15.176 26.823 8.665
907 303 1 0.0 17.511 30.25 9.228
908 303 2 0.0 16.966 30.704 8.534
909 303 2 0.0 16.942 29.503 9.537
910 304 1 0.0 10.84 24.179 6.995
911 304 2 0.0 11.728 24.558 6.763
912 304 2 0.0 11.028 23.577 7.77
913 305 1 0.0 17.039 29.412 5.497