# Saved structures from Unity 
0 atoms
0 bonds
0 angles
2 atom types
1 bond types
1 angle types
-0.12 9.24404557043419 xlo xhi
9.936 19.674393480159992 ylo yhi
-0.353 9.426393489320061 zlo zhi

Masses 

1 15.9994  # O 
2 1.00794  # H 

Atoms 


Bonds 


Angles 

