ITEM: TIMESTEP
0
ITEM: NUMBER OF ATOMS
384
ITEM: BOX BOUNDS pp pp pp
-1.4860000000000000e+00 1.5204000000000001e+01
-1.0629999999999999e+00 1.3715999999999999e+01
-1.3420000000000001e+00 1.7667999999999999e+01
ITEM: ATOMS id type xs ys zs
1 1 0.165187 0.196023 0.247815
2 2 0.193648 0.17261 0.208069
3 2 0.193674 0.173063 0.287706
4 1 0.405213 0.37452 0.126305
5 2 0.430309 0.397292 0.167976
6 2 0.351774 0.397917 0.128131
7 1 0.483641 0.436431 0.244611
8 2 0.481859 0.501127 0.246376
9 2 0.456162 0.417331 0.286239
10 1 0.405209 0.37567 0.363336
11 2 0.351789 0.39912 0.365153
12 2 0.430352 0.398532 0.404955
13 1 0.242485 0.13363 0.366544
14 2 0.245137 0.0689331 0.366229
15 2 0.297279 0.152752 0.366439
16 1 0.251528 0.44455 0.365543
17 2 0.22264 0.422214 0.405425
18 2 0.222654 0.421819 0.325789
19 1 0.400418 0.187831 0.131722
20 2 0.401992 0.252535 0.129962
21 2 0.427566 0.168852 0.0898939
22 1 0.400419 0.189051 0.368754
23 2 0.427677 0.169654 0.327097
24 2 0.402165 0.253734 0.36669
25 1 0.173096 0.383924 0.484219
26 2 0.1709 0.319204 0.484377
27 2 0.118167 0.40255 0.484114
28 1 0.173097 0.382704 0.247238
29 2 0.118176 0.401362 0.247186
30 2 0.170873 0.317986 0.247449
31 1 0.251527 0.443331 0.128563
32 2 0.222414 0.420804 0.168254
33 2 0.222539 0.421349 0.0886182
34 1 0.242485 0.132348 0.129563
35 2 0.245137 0.0676517 0.129195
36 2 0.29728 0.15147 0.129511
37 1 0.477889 0.125448 0.250447
39 2 0.452849 0.148181 0.208737
40 1 0.477888 0.126595 0.487377
41 2 0.452825 0.149421 0.445708
43 1 0.483702 0.437717 0.48159
44 2 0.481735 0.502399 0.483521
46 1 0.165187 0.19724 0.484797
48 2 0.193657 0.173889 0.445035
86 2 2.31305e-05 0.148938 0.24871
90 2 1.39568e-05 0.15011 0.485659
97 1 0.165187 0.693621 0.247815
98 2 0.193648 0.670208 0.208069
99 2 0.193674 0.670661 0.287706
100 1 0.405211 0.872052 0.126306
101 2 0.430319 0.894816 0.167974
102 2 0.35179 0.8955 0.128121
103 1 0.483641 0.934026 0.244611
104 2 0.481845 0.998722 0.246396
105 2 0.456167 0.914896 0.286232
106 1 0.405211 0.873266 0.363333
107 2 0.351776 0.896671 0.365172
108 2 0.43034 0.896083 0.404974
109 1 0.242483 0.631166 0.366544
110 2 0.245164 0.566471 0.366228
111 2 0.29727 0.650318 0.366439
112 1 0.251527 0.942147 0.365544
113 2 0.222657 0.919758 0.405418
114 2 0.222661 0.919423 0.325782
115 1 0.400419 0.685367 0.131721
116 2 0.401978 0.750072 0.129982
117 2 0.42757 0.666418 0.0898868
118 1 0.400419 0.686649 0.368754
119 2 0.427677 0.667252 0.327097
120 2 0.402165 0.751332 0.36669
121 1 0.173097 0.881456 0.484219
122 2 0.170873 0.816738 0.484377
123 2 0.118176 0.900113 0.484114
124 1 0.173096 0.8803 0.247238
125 2 0.118167 0.898927 0.247186
126 2 0.1709 0.815581 0.247449
127 1 0.251528 0.940862 0.128563
128 2 0.222397 0.918389 0.168261
129 2 0.222532 0.918874 0.0886248
130 1 0.242483 0.629881 0.129563
131 2 0.245164 0.565185 0.129195
132 2 0.29727 0.649033 0.129511
133 1 0.477889 0.622979 0.250445
135 2 0.452847 0.645765 0.208754
136 1 0.477888 0.624193 0.487377
137 2 0.452825 0.647019 0.445708
139 1 0.483703 0.935313 0.481589
140 2 0.481722 -6.63181e-06 0.483541
142 1 0.165191 0.694836 0.484797
144 2 0.193632 0.67144 0.445035
182 2 2.6133e-05 0.646462 0.248719
186 2 1.39568e-05 0.647708 0.485659
239 2 0.193351 0.173759 1.13704e-05
335 2 0.193326 0.67131 1.12758e-05
45 2 0.456441 0.418342 0.523251
47 2 0.193362 0.17375 0.524672
141 2 0.456446 0.915908 0.523243
143 2 0.193337 0.671301 0.524671
193 1 0.165187 0.196023 0.723145
194 2 0.193659 0.172601 0.683409
195 2 0.193663 0.173072 0.763045
196 1 0.405212 0.374519 0.601684
197 2 0.430324 0.397313 0.64334
198 2 0.351775 0.39792 0.603516
199 1 0.483643 0.43643 0.719989
200 2 0.481844 0.501127 0.721727
201 2 0.456136 0.417348 0.761607
202 1 0.40521 0.375672 0.838667
203 2 0.351788 0.399117 0.840478
204 2 0.430337 0.398511 0.880302
205 1 0.242485 0.13363 0.841925
206 2 0.245137 0.0689335 0.841558
207 2 0.297279 0.152752 0.84182
208 1 0.251528 0.44455 0.840923
209 2 0.222628 0.422205 0.880795
210 2 0.222665 0.421828 0.801159
211 1 0.400421 0.187832 0.607099
212 2 0.401977 0.252535 0.605313
213 2 0.42754 0.168835 0.565262
214 1 0.400418 0.189052 0.844085
215 2 0.4277 0.169645 0.802444
216 2 0.402168 0.253734 0.842014
217 1 0.173096 0.383924 0.959548
218 2 0.1709 0.319204 0.959758
219 2 0.118167 0.40255 0.959442
220 1 0.173097 0.382704 0.722567
221 2 0.118176 0.401362 0.722567
222 2 0.170873 0.317986 0.722777
223 1 0.251527 0.443331 0.603896
224 2 0.222436 0.420821 0.643605
225 2 0.222517 0.421332 0.563969
226 1 0.242485 0.132348 0.604892
227 2 0.245137 0.0676513 0.604577
228 2 0.29728 0.15147 0.60484
229 1 0.477889 0.125445 0.72578
231 2 0.452855 0.148214 0.684079
232 1 0.477888 0.126598 0.962755
233 2 0.452819 0.149387 0.921076
235 1 0.483701 0.437719 0.95692
236 2 0.481747 0.5024 0.958884
237 2 0.456445 0.418316 0.998575
238 1 0.165187 0.19724 0.960128
240 2 0.193668 0.17388 0.920375
278 2 1.77405e-05 0.148954 0.724069
282 2 1.93538e-05 0.150094 0.96101
289 1 0.165187 0.693621 0.723145
290 2 0.193659 0.670199 0.683409
291 2 0.193663 0.67067 0.763045
292 1 0.40521 0.872051 0.601685
293 2 0.430335 0.894837 0.643338
294 2 0.351791 0.895504 0.603506
295 1 0.483644 0.934025 0.719988
296 2 0.481831 0.998721 0.721748
297 2 0.456141 0.914913 0.7616
298 1 0.405212 0.873267 0.838665
299 2 0.351775 0.896668 0.840497
300 2 0.430324 0.896062 0.880321
301 1 0.242483 0.631166 0.841925
302 2 0.245164 0.566471 0.841557
303 2 0.29727 0.650319 0.84182
304 1 0.251527 0.942147 0.840924
305 2 0.222646 0.919749 0.880789
306 2 0.222672 0.919432 0.801152
307 1 0.400421 0.685368 0.607099
308 2 0.401964 0.750073 0.605333
309 2 0.427544 0.666401 0.565255
310 1 0.400418 0.686649 0.844085
311 2 0.4277 0.667243 0.802444
312 2 0.402168 0.751332 0.842014
313 1 0.173097 0.881456 0.959548
314 2 0.170873 0.816738 0.959758
315 2 0.118176 0.900113 0.959442
316 1 0.173096 0.8803 0.722567
317 2 0.118167 0.898927 0.722567
318 2 0.1709 0.815581 0.722777
319 1 0.251528 0.940862 0.603895
320 2 0.222419 0.918406 0.643612
321 2 0.222509 0.918857 0.563976
322 1 0.242483 0.629881 0.604892
323 2 0.245164 0.565185 0.604577
324 2 0.29727 0.649033 0.60484
325 1 0.477889 0.622976 0.725778
327 2 0.452853 0.645798 0.684096
328 1 0.477888 0.624196 0.962755
329 2 0.452819 0.646985 0.921076
331 1 0.483702 0.935315 0.956919
332 2 0.481734 -6.15387e-06 0.958904
333 2 0.456449 0.915881 0.998568
334 1 0.165191 0.694836 0.960128
336 2 0.193643 0.671431 0.920375
374 2 2.07378e-05 0.646478 0.724078
378 2 1.93538e-05 0.647692 0.96101
38 2 0.531299 0.148938 0.24871
42 2 0.53129 0.15011 0.485659
49 1 0.633911 0.196023 0.247815
50 2 0.662372 0.17261 0.208069
51 2 0.662397 0.173063 0.287706
52 1 0.873881 0.374519 0.126305
53 2 0.899007 0.397291 0.167962
54 2 0.820454 0.397946 0.128145
55 1 0.952364 0.436432 0.244612
56 2 0.95053 0.501127 0.246365
57 2 0.924888 0.417315 0.286237
58 1 0.873877 0.375668 0.363336
59 2 0.820468 0.39915 0.365168
60 2 0.899051 0.398531 0.404941
61 1 0.711208 0.13363 0.366544
62 2 0.713861 0.0689331 0.366229
63 2 0.766003 0.152752 0.366439
64 1 0.720252 0.44455 0.365543
65 2 0.691363 0.422214 0.405425
66 2 0.691378 0.421819 0.325789
67 1 0.869141 0.187832 0.131723
68 2 0.870717 0.252535 0.129959
69 2 0.896243 0.168847 0.0898739
70 1 0.869143 0.189051 0.368754
71 2 0.896401 0.169654 0.327097
72 2 0.870889 0.253734 0.36669
73 1 0.641765 0.383925 0.484219
74 2 0.63959 0.319205 0.484377
75 2 0.586831 0.40253 0.484114
76 1 0.641767 0.382705 0.247238
77 2 0.58684 0.401342 0.247186
78 2 0.639562 0.317986 0.247449
79 1 0.720251 0.443331 0.128563
80 2 0.691138 0.420804 0.168254
81 2 0.691263 0.421349 0.0886182
82 1 0.711208 0.132348 0.129563
83 2 0.713861 0.0676517 0.129195
84 2 0.766003 0.15147 0.129511
85 1 0.946613 0.125448 0.250447
87 2 0.921573 0.148181 0.208737
88 1 0.946611 0.126595 0.487377
89 2 0.921549 0.149421 0.445708
91 1 0.952426 0.437717 0.48159
92 2 0.950459 0.502399 0.483521
94 1 0.633909 0.197242 0.484796
96 2 0.662391 0.17388 0.445045
134 2 0.531302 0.646462 0.248719
138 2 0.53129 0.647708 0.485659
145 1 0.633911 0.693621 0.247815
146 2 0.662372 0.670208 0.208069
147 2 0.662397 0.670661 0.287706
148 1 0.873879 0.87205 0.126306
149 2 0.899018 0.894815 0.16796
150 2 0.82047 0.89553 0.128135
151 1 0.952365 0.934027 0.244611
152 2 0.950516 0.998721 0.246386
153 2 0.924892 0.914881 0.286229
154 1 0.873879 0.873264 0.363333
155 2 0.820456 0.896701 0.365187
156 2 0.899038 0.896082 0.40496
157 1 0.711207 0.631166 0.366544
158 2 0.713888 0.566471 0.366228
159 2 0.765994 0.650318 0.366439
160 1 0.72025 0.942147 0.365544
161 2 0.691381 0.919758 0.405418
162 2 0.691385 0.919423 0.325782
163 1 0.869142 0.685368 0.131723
164 2 0.870704 0.750072 0.129979
165 2 0.896247 0.666413 0.0898667
166 1 0.869143 0.686649 0.368754
167 2 0.896401 0.667252 0.327097
168 2 0.870889 0.751332 0.36669
169 1 0.641767 0.881457 0.484219
170 2 0.639563 0.816738 0.484377
171 2 0.58684 0.900093 0.484114
172 1 0.641765 0.880301 0.247238
173 2 0.586831 0.898907 0.247186
174 2 0.639589 0.815581 0.247449
175 1 0.720252 0.940862 0.128563
176 2 0.691121 0.918389 0.168261
177 2 0.691255 0.918874 0.0886248
178 1 0.711207 0.629881 0.129563
179 2 0.713888 0.565185 0.129195
180 2 0.765994 0.649033 0.129511
181 1 0.946613 0.622979 0.250445
183 2 0.921571 0.645765 0.208754
184 1 0.946611 0.624193 0.487377
185 2 0.921549 0.647019 0.445708
187 1 0.952427 0.935313 0.481589
188 2 0.950445 -6.63181e-06 0.483541
190 1 0.633912 0.694838 0.484796
192 2 0.662366 0.671431 0.445044
287 2 0.662039 0.173739 2.08001e-05
383 2 0.662014 0.67129 2.06924e-05
93 2 0.925165 0.418342 0.523251
95 2 0.66205 0.17373 0.524681
189 2 0.92517 0.915908 0.523243
191 2 0.662024 0.671281 0.524681
230 2 0.531294 0.148954 0.724069
234 2 0.531296 0.150094 0.96101
241 1 0.633911 0.196023 0.723145
242 2 0.662383 0.172601 0.683409
243 2 0.662386 0.173072 0.763045
244 1 0.87388 0.374517 0.601684
245 2 0.899023 0.397312 0.643326
246 2 0.820455 0.39795 0.603531
247 1 0.952367 0.436431 0.71999
248 2 0.950515 0.501126 0.721717
249 2 0.924862 0.417332 0.761605
250 1 0.873878 0.37567 0.838667
251 2 0.820468 0.399147 0.840492
252 2 0.899035 0.39851 0.880287
253 1 0.711208 0.13363 0.841925
254 2 0.713861 0.0689335 0.841558
255 2 0.766003 0.152752 0.84182
256 1 0.720252 0.44455 0.840923
257 2 0.691352 0.422205 0.880795
258 2 0.691388 0.421828 0.801159
259 1 0.869144 0.187833 0.607101
260 2 0.870703 0.252535 0.605311
261 2 0.896217 0.16883 0.565242
262 1 0.869141 0.189052 0.844085
263 2 0.896424 0.169645 0.802444
264 2 0.870891 0.253734 0.842014
265 1 0.641765 0.383925 0.959548
266 2 0.63959 0.319205 0.959758
267 2 0.586831 0.40253 0.959442
268 1 0.641767 0.382705 0.722567
269 2 0.58684 0.401342 0.722567
270 2 0.639562 0.317986 0.722777
271 1 0.720251 0.443331 0.603896
272 2 0.69116 0.420821 0.643605
273 2 0.691241 0.421332 0.563969
274 1 0.711208 0.132348 0.604892
275 2 0.713861 0.0676513 0.604577
276 2 0.766004 0.15147 0.60484
277 1 0.946613 0.125445 0.72578
279 2 0.921579 0.148214 0.684079
280 1 0.946611 0.126598 0.962755
281 2 0.921543 0.149387 0.921076
283 1 0.952425 0.437719 0.95692
284 2 0.950471 0.5024 0.958884
285 2 0.925168 0.418316 0.998575
286 1 0.633909 0.197242 0.960127
288 2 0.662402 0.173871 0.920384
326 2 0.531297 0.646478 0.724078
330 2 0.531296 0.647692 0.96101
337 1 0.633911 0.693621 0.723145
338 2 0.662383 0.670199 0.683409
339 2 0.662386 0.67067 0.763045
340 1 0.873878 0.872049 0.601685
341 2 0.899033 0.894836 0.643323
342 2 0.820471 0.895533 0.603521
343 1 0.952367 0.934026 0.719989
344 2 0.950501 0.998721 0.721737
345 2 0.924866 0.914898 0.761597
346 1 0.87388 0.873265 0.838665
347 2 0.820455 0.896698 0.840511
348 2 0.899023 0.896061 0.880306
349 1 0.711207 0.631166 0.841925
350 2 0.713888 0.566471 0.841557
351 2 0.765994 0.650319 0.84182
352 1 0.72025 0.942147 0.840924
353 2 0.69137 0.919749 0.880789
354 2 0.691396 0.919432 0.801152
355 1 0.869144 0.685369 0.6071
356 2 0.870689 0.750073 0.605331
357 2 0.896221 0.666396 0.565235
358 1 0.869141 0.686649 0.844085
359 2 0.896424 0.667243 0.802444
360 2 0.870891 0.751332 0.842014
361 1 0.641767 0.881457 0.959548
362 2 0.639562 0.816738 0.959758
363 2 0.58684 0.900093 0.959442
364 1 0.641765 0.880301 0.722567
365 2 0.586831 0.898907 0.722567
366 2 0.639589 0.815581 0.722777
367 1 0.720252 0.940862 0.603895
368 2 0.691143 0.918406 0.643612
369 2 0.691233 0.918857 0.563976
370 1 0.711207 0.629881 0.604892
371 2 0.713888 0.565185 0.604577
372 2 0.765994 0.649033 0.60484
373 1 0.946613 0.622976 0.725778
375 2 0.921577 0.645798 0.684096
376 1 0.946611 0.624196 0.962755
377 2 0.921543 0.646985 0.921076
379 1 0.952426 0.935315 0.956919
380 2 0.950457 -6.15387e-06 0.958904
381 2 0.925173 0.915881 0.998568
382 1 0.633912 0.694838 0.960127
384 2 0.662377 0.671422 0.920384
ITEM: TIMESTEP
500
ITEM: NUMBER OF ATOMS
384
ITEM: BOX BOUNDS pp pp pp
-1.3377522176738612e+00 1.5055752217673861e+01
-9.3172654433802826e-01 1.3584726544338046e+01
-1.1731449765116899e+00 1.7499144976511673e+01
ITEM: ATOMS id type xs ys zs
1 1 0.132948 0.185292 0.229103
2 2 0.167797 0.175172 0.188726
3 2 0.1589 0.153031 0.267576
4 1 0.418493 0.366051 0.110678
5 2 0.442228 0.385673 0.154965
6 2 0.363682 0.388686 0.112379
7 1 0.499075 0.406869 0.238826
219 2 0.105568 0.392085 -0.0131175
9 2 0.460323 0.388314 0.274359
10 1 0.388826 0.389346 0.350089
11 2 0.337627 0.419128 0.358549
12 2 0.423139 0.40999 0.38834
13 1 0.217434 0.108806 0.354762
14 2 0.228251 0.0446656 0.347578
15 2 0.269309 0.138076 0.348747
16 1 0.230585 0.451988 0.380234
17 2 0.206255 0.429056 0.423294
18 2 0.196869 0.428333 0.342633
19 1 0.390175 0.179048 0.0964685
20 2 0.409814 0.241151 0.0965228
21 2 0.406548 0.154955 0.0509623
22 1 0.367331 0.203065 0.323084
23 2 0.405763 0.179932 0.288932
24 2 0.373482 0.268581 0.320892
25 1 0.143737 0.392804 0.488594
26 2 0.140235 0.327851 0.480293
27 2 0.0888816 0.414438 0.483502
28 1 0.149365 0.372289 0.267667
29 2 0.0912703 0.376948 0.263967
30 2 0.160762 0.308518 0.259289
31 1 0.257192 0.438258 0.113773
32 2 0.234509 0.401622 0.151462
33 2 0.22524 0.42304 0.0725255
34 1 0.215844 0.140202 0.0925752
35 2 0.215675 0.0746179 0.0872323
36 2 0.272399 0.156311 0.0950182
37 1 0.477419 0.130797 0.228378
39 2 0.460402 0.16436 0.186854
335 2 0.185398 0.682918 0.0191115
41 2 0.461711 0.18301 0.408711
43 1 0.488944 0.443112 0.461216
44 2 0.484818 0.50882 0.463587
46 1 0.138363 0.2012 0.472272
48 2 0.154706 0.168105 0.430314
86 2 0.0301221 0.16235 0.242047
90 2 0.0303667 0.161376 0.483244
97 1 0.15794 0.698452 0.229736
98 2 0.189057 0.672262 0.19143
99 2 0.184688 0.677566 0.272317
100 1 0.409484 0.86843 0.0935365
101 2 0.437838 0.888403 0.135578
102 2 0.355943 0.894008 0.098352
103 1 0.48092 0.932015 0.220475
104 2 0.47362 0.997433 0.221311
105 2 0.44421 0.909368 0.256245
106 1 0.398796 0.851806 0.355341
107 2 0.342231 0.867948 0.357458
108 2 0.421697 0.877322 0.398126
109 1 0.244402 0.636266 0.355632
110 2 0.241754 0.572411 0.36822
111 2 0.301453 0.650318 0.355619
112 1 0.243892 0.918738 0.34203
113 2 0.203126 0.909947 0.378094
114 2 0.213641 0.928632 0.298859
115 1 0.432818 0.667617 0.115596
116 2 0.436098 0.731785 0.104136
117 2 0.452401 0.63694 0.0735978
118 1 0.409274 0.663162 0.36034
119 2 0.443763 0.645614 0.321285
120 2 0.409435 0.729095 0.359416
121 1 0.144468 0.885521 0.463801
122 2 0.137198 0.820783 0.471179
123 2 0.0904545 0.910458 0.465716
124 1 0.143187 0.898545 0.220407
125 2 0.0893596 0.923977 0.222409
126 2 0.13628 0.835311 0.233628
127 1 0.231411 0.945654 0.110756
128 2 0.200933 0.923223 0.150857
129 2 0.204845 0.919448 0.0699003
130 1 0.245112 0.627428 0.104736
131 2 0.246394 0.561549 0.102767
132 2 0.30023 0.644843 0.114897
239 2 0.159706 0.167876 0.0162017
135 2 0.495922 0.630788 0.203501
136 1 0.471752 0.634587 0.507633
137 2 0.451553 0.65709 0.462826
139 1 0.472869 0.938732 0.469875
140 2 0.472551 0.00343566 0.459982
142 1 0.136523 0.684567 0.482323
144 2 0.172207 0.66549 0.44455
182 2 0.0513516 0.659939 0.265746
186 2 0.0247249 0.64407 0.509131
181 1 -0.00283584 0.641356 0.278246
333 2 0.450836 0.921198 0.0129689
40 1 0.485888 0.139123 0.440548
217 1 0.160594 0.370824 -0.00852058
237 2 0.454731 0.391366 0.00822586
218 2 0.157281 0.305778 -0.0164325
45 2 0.448682 0.421323 0.494259
47 2 0.178386 0.185404 0.507524
141 2 0.44166 0.932581 0.512941
143 2 0.167361 0.674836 0.525195
193 1 0.146302 0.184481 0.710839
194 2 0.179711 0.178339 0.669064
195 2 0.179071 0.160472 0.748946
196 1 0.384899 0.3657 0.59976
197 2 0.419994 0.404844 0.627197
198 2 0.332299 0.39399 0.60321
199 1 0.484353 0.448064 0.694585
332 2 0.468433 1.00204 0.964124
201 2 0.452488 0.441922 0.73728
202 1 0.394997 0.389907 0.81821
203 2 0.338528 0.404827 0.824198
204 2 0.419903 0.407656 0.862479
205 1 0.230297 0.130463 0.850082
206 2 0.235776 0.0652072 0.844475
207 2 0.28425 0.153961 0.842955
208 1 0.213322 0.434623 0.847031
209 2 0.202088 0.396772 0.887835
210 2 0.179849 0.409653 0.809778
211 1 0.417769 0.177616 0.584286
212 2 0.415106 0.243325 0.587924
213 2 0.454393 0.166487 0.545305
214 1 0.395059 0.175839 0.848151
215 2 0.425853 0.156117 0.80738
216 2 0.39629 0.241697 0.845775
295 1 0.461482 0.886016 0.735075
331 1 0.474411 0.936596 0.967619
334 1 0.147083 0.690682 0.980898
220 1 0.131215 0.372225 0.723633
221 2 0.0752386 0.390862 0.725399
222 2 0.129279 0.306318 0.723573
223 1 0.230675 0.451391 0.612602
224 2 0.197953 0.424838 0.649707
225 2 0.212014 0.422341 0.569593
226 1 0.240664 0.140015 0.582671
227 2 0.242095 0.0740918 0.58251
228 2 0.29461 0.158103 0.568984
229 1 0.469403 0.0810638 0.726334
231 2 0.449527 0.0904841 0.678689
232 1 0.47181 0.121733 0.972814
233 2 0.447064 0.141363 0.928958
235 1 0.466046 0.413535 0.960976
236 2 0.484772 0.475336 0.968012
336 2 0.174316 0.666482 0.939635
238 1 0.128654 0.173865 0.973035
240 2 0.160838 0.143473 0.937376
278 2 0.031593 0.148925 0.712075
282 2 0.0112622 0.150695 0.962348
289 1 0.163771 0.695498 0.73408
290 2 0.193749 0.67355 0.693529
291 2 0.195412 0.676527 0.774566
292 1 0.385469 0.884657 0.593905
293 2 0.406279 0.88618 0.641791
294 2 0.328461 0.897343 0.598996
378 2 0.0336694 0.666036 0.988468
374 2 0.0584399 0.644926 0.734103
297 2 0.446098 0.858632 0.779714
298 1 0.364435 0.83422 0.868702
299 2 0.325367 0.873 0.845402
300 2 0.395503 0.875272 0.898125
301 1 0.23012 0.634053 0.854832
302 2 0.217328 0.569945 0.850568
303 2 0.288013 0.635604 0.861414
304 1 0.232638 0.945008 0.836197
305 2 0.194919 0.937549 0.874902
306 2 0.204681 0.920715 0.795342
307 1 0.396483 0.685821 0.623947
308 2 0.394955 0.749537 0.610803
309 2 0.423276 0.656126 0.584679
310 1 0.410637 0.651108 0.857523
311 2 0.447952 0.640864 0.818903
312 2 0.404793 0.71666 0.859723
313 1 0.160749 0.882999 0.963345
314 2 0.169773 0.81887 0.95441
315 2 0.104729 0.886678 0.977525
316 1 0.159434 0.878349 0.716309
317 2 0.103249 0.896182 0.714626
318 2 0.15833 0.812467 0.714318
319 1 0.230736 0.948244 0.589963
320 2 0.195484 0.927473 0.627509
321 2 0.203933 0.929605 0.546783
322 1 0.234932 0.638422 0.606926
323 2 0.235 0.572715 0.611265
324 2 0.290362 0.65602 0.61546
296 2 0.45192 0.950512 0.741687
327 2 0.481187 0.662305 0.714842
328 1 0.489649 0.599518 0.98077
329 2 0.454569 0.618442 0.942517
38 2 0.534024 0.145546 0.233572
42 2 0.535367 0.167799 0.456175
49 1 0.62947 0.188323 0.246627
50 2 0.66355 0.17865 0.205682
51 2 0.656113 0.155588 0.284488
52 1 0.873222 0.382805 0.123729
53 2 0.898739 0.403916 0.166822
54 2 0.824134 0.418252 0.120346
55 1 0.951713 0.448164 0.246356
8 2 0.497839 0.472779 0.240043
57 2 0.93256 0.424643 0.291202
58 1 0.879434 0.382131 0.37649
59 2 0.827949 0.411296 0.384918
60 2 0.912279 0.39948 0.416675
61 1 0.723749 0.125095 0.369705
62 2 0.723227 0.0594939 0.374902
63 2 0.780372 0.140753 0.366749
64 1 0.728713 0.43496 0.395844
65 2 0.689699 0.421726 0.432576
66 2 0.705496 0.409185 0.353285
67 1 0.89579 0.190806 0.1125
68 2 0.888383 0.256216 0.112281
69 2 0.917078 0.176954 0.0659918
70 1 0.880673 0.191799 0.364514
71 2 0.915772 0.180036 0.324576
72 2 0.887616 0.256059 0.374278
56 2 0.967655 0.510224 0.256583
381 2 0.920089 0.917726 0.0355918
285 2 0.913592 0.428269 0.0310008
76 1 0.667337 0.372098 0.267476
77 2 0.611977 0.39134 0.273972
78 2 0.664836 0.306215 0.267562
79 1 0.714959 0.446391 0.110554
80 2 0.681336 0.425161 0.149083
81 2 0.693083 0.416902 0.0689152
82 1 0.711518 0.149966 0.120889
83 2 0.702 0.0854426 0.127384
84 2 0.769578 0.155355 0.117378
85 1 0.975047 0.142988 0.250023
87 2 0.945387 0.166999 0.210002
383 2 0.664701 0.675361 0.0136861
89 2 0.946703 0.154443 0.449331
287 2 0.662207 0.171887 0.0270575
192 2 0.648138 0.666637 0.437686
94 1 0.632353 0.21471 0.477474
96 2 0.661575 0.184376 0.439872
134 2 0.57189 0.63351 0.249561
138 2 0.529171 0.646393 0.505972
145 1 0.665993 0.692779 0.226618
146 2 0.682021 0.672958 0.179791
147 2 0.700924 0.659376 0.258452
148 1 0.864886 0.880194 0.122598
149 2 0.889824 0.919458 0.157485
150 2 0.807689 0.884336 0.132407
151 1 0.969406 0.947256 0.237868
152 2 0.965538 0.0130338 0.239157
153 2 0.946232 0.9275 0.282347
154 1 0.879449 0.875115 0.361526
155 2 0.825695 0.896892 0.372224
156 2 0.914203 0.908399 0.393584
157 1 0.73662 0.617138 0.35087
158 2 0.740427 0.551686 0.356155
159 2 0.78895 0.639622 0.365428
160 1 0.728564 0.938642 0.383115
161 2 0.688914 0.927492 0.419738
162 2 0.703374 0.916823 0.340086
163 1 0.879713 0.690528 0.119577
164 2 0.881186 0.755494 0.110878
165 2 0.912188 0.6645 0.0820821
166 1 0.892172 0.699122 0.381057
167 2 0.924734 0.682415 0.340532
168 2 0.888451 0.764857 0.378633
169 1 0.637967 0.886779 0.502294
170 2 0.643086 0.82451 0.486027
171 2 0.582648 0.903022 0.491804
172 1 0.642798 0.876063 0.251137
173 2 0.585452 0.885937 0.245262
174 2 0.649006 0.810509 0.249996
175 1 0.704317 0.960827 0.122401
176 2 0.686693 0.932789 0.166147
177 2 0.671142 0.93291 0.0862219
178 1 0.721878 0.636762 0.0957058
179 2 0.719863 0.571703 0.103889
180 2 0.775337 0.654588 0.11098
190 1 0.631275 0.694848 0.481595
183 2 0.96412 0.662081 0.239169
88 1 0.97788 0.133637 0.489548
185 2 0.947069 0.651175 0.465593
187 1 0.976276 0.93719 0.471595
133 1 0.517505 0.609565 0.248189
376 1 0.976862 0.65108 -0.0091551
188 2 0.966942 0.00110715 0.481182
91 1 0.971221 0.429764 0.489694
92 2 0.972684 0.494344 0.499985
93 2 0.944777 0.402924 0.530362
95 2 0.656542 0.191871 0.520625
189 2 0.940291 0.905494 0.503578
191 2 0.669713 0.673281 0.516356
230 2 0.516486 0.119832 0.729658
234 2 0.527736 0.139831 0.968412
241 1 0.614679 0.176331 0.717047
242 2 0.65068 0.168991 0.677088
243 2 0.646816 0.159286 0.757748
244 1 0.888453 0.379884 0.605258
245 2 0.924948 0.400555 0.64191
246 2 0.835357 0.395959 0.62255
247 1 0.97893 0.444856 0.739699
248 2 0.979596 0.510794 0.739317
249 2 0.93929 0.429174 0.775314
250 1 0.867773 0.381319 0.85857
251 2 0.815107 0.408769 0.852668
252 2 0.890482 0.411713 0.899465
253 1 0.705234 0.130167 0.845132
254 2 0.710176 0.064471 0.84418
255 2 0.760319 0.152031 0.845787
256 1 0.704457 0.462676 0.850592
257 2 0.68596 0.442301 0.896566
258 2 0.686176 0.416035 0.818097
259 1 0.877782 0.185933 0.599783
260 2 0.892667 0.249696 0.599302
261 2 0.904863 0.160262 0.558983
262 1 0.861819 0.182115 0.84106
263 2 0.898552 0.164682 0.803582
264 2 0.869702 0.247103 0.846326
380 2 0.942546 -0.00657755 0.983413
379 1 0.941945 0.927835 0.988705
377 2 0.956036 0.666894 0.944555
268 1 0.630457 0.364395 0.727019
269 2 0.583003 0.38854 0.703778
270 2 0.62407 0.298939 0.724325
271 1 0.735794 0.447819 0.641592
272 2 0.70216 0.42178 0.678287
273 2 0.70935 0.431087 0.597774
274 1 0.713674 0.149294 0.592316
275 2 0.714004 0.0833607 0.593161
276 2 0.769936 0.166269 0.59608
277 1 0.976267 0.128651 0.716592
279 2 0.949095 0.15443 0.675879
280 1 0.958349 0.124616 0.970037
281 2 0.927706 0.141842 0.928503
283 1 0.937746 0.454672 0.989082
284 2 0.93718 0.519643 0.997844
384 2 0.677881 0.680836 0.933546
286 1 0.639597 0.184977 0.980899
288 2 0.669493 0.14632 0.948709
326 2 0.566126 0.66252 0.746674
330 2 0.535641 0.639942 0.977572
337 1 0.656962 0.734624 0.743201
338 2 0.673531 0.711384 0.697482
339 2 0.688477 0.700128 0.777016
340 1 0.885879 0.87808 0.593158
341 2 0.91466 0.894495 0.635901
342 2 0.834196 0.908243 0.597564
343 1 1.00477 0.936777 0.722356
344 2 1.00594 0.00263814 0.724701
345 2 0.973138 0.918541 0.763051
346 1 0.885109 0.880578 0.853061
347 2 0.829577 0.898126 0.844988
348 2 0.897442 0.903803 0.899805
349 1 0.744898 0.647002 0.837791
350 2 0.734007 0.582923 0.845213
351 2 0.80228 0.653151 0.845999
352 1 0.720082 0.932443 0.844812
353 2 0.696615 0.920035 0.890755
354 2 0.67827 0.916139 0.811345
355 1 0.876729 0.692018 0.622644
356 2 0.880879 0.756955 0.614502
357 2 0.906576 0.664779 0.584002
358 1 0.908012 0.688494 0.856205
359 2 0.946542 0.673703 0.819439
360 2 0.899488 0.753444 0.85145
361 1 0.643031 0.888485 0.984904
362 2 0.640337 0.825161 0.970794
363 2 0.587276 0.90783 0.987336
364 1 0.623614 0.914649 0.727031
365 2 0.565411 0.909672 0.728497
366 2 0.642575 0.8524 0.730052
367 1 0.726656 0.956361 0.614259
368 2 0.688967 0.943176 0.652051
369 2 0.699154 0.937026 0.571605
370 1 0.711514 0.633243 0.612023
371 2 0.715699 0.567491 0.613364
372 2 0.76683 0.654342 0.612857
373 1 1.00112 0.634456 0.739561
375 2 0.976856 0.66523 0.699536
325 1 0.515377 0.629941 0.747921
382 1 0.63811 0.69236 0.969999
73 1 0.630482 0.410402 0.524699
74 2 0.633676 0.344944 0.519155
75 2 0.578186 0.426478 0.505621
200 2 0.492648 0.513019 0.689571
267 2 0.579335 0.398327 0.965864
265 1 0.636281 0.386706 0.972723
266 2 0.641123 0.321047 0.970571
184 1 0.968642 0.625706 0.508923
ITEM: TIMESTEP
1000
ITEM: NUMBER OF ATOMS
384
ITEM: BOX BOUNDS pp pp pp
-1.2355512599226959e+00 1.4953551259922696e+01
-8.4122756563193057e-01 1.3494227565631956e+01
-1.0567375345194918e+00 1.7382737534519507e+01
ITEM: ATOMS id type xs ys zs
1 1 0.149092 0.182242 0.235461
2 2 0.174785 0.158702 0.192438
3 2 0.167986 0.141745 0.273253
4 1 0.388954 0.389379 0.11265
5 2 0.420842 0.409083 0.153592
6 2 0.336625 0.419431 0.118823
133 1 0.455278 0.616756 0.240361
186 2 0.00983646 0.651151 0.479877
9 2 0.444581 0.418902 0.289327
10 1 0.372243 0.371289 0.38335
11 2 0.321245 0.403561 0.391124
12 2 0.408583 0.395378 0.419765
13 1 0.222601 0.1222 0.373117
14 2 0.222928 0.0561436 0.38069
15 2 0.279755 0.13906 0.370891
16 1 0.208806 0.45187 0.388936
17 2 0.186016 0.414374 0.426943
18 2 0.202887 0.414581 0.346189
19 1 0.393666 0.179248 0.122309
20 2 0.392171 0.245873 0.119136
21 2 0.424114 0.160039 0.0803922
22 1 0.391579 0.189651 0.376784
23 2 0.410123 0.181954 0.327857
24 2 0.386892 0.255739 0.382939
333 2 0.437589 0.942172 0.0109682
7 1 0.475395 0.434467 0.246709
237 2 0.458069 0.435519 0.0259715
28 1 0.156105 0.389267 0.23939
29 2 0.0995865 0.405433 0.23076
30 2 0.154931 0.323777 0.249456
31 1 0.220722 0.454564 0.102089
32 2 0.187874 0.428815 0.140328
33 2 0.200121 0.425555 0.0589737
34 1 0.230892 0.127954 0.104993
35 2 0.22844 0.0612411 0.104678
36 2 0.288439 0.141974 0.109809
37 1 0.482994 0.143477 0.24347
39 2 0.450142 0.156208 0.20146
335 2 0.134439 0.669398 -0.00226207
41 2 0.446679 0.15798 0.461999
43 1 0.496333 0.412632 0.486276
44 2 0.498899 0.479321 0.487511
25 1 0.117773 0.370167 0.496024
48 2 0.168603 0.179361 0.452174
86 2 0.0369968 0.122084 0.231011
90 2 0.0225341 0.136544 0.485889
97 1 0.13102 0.707067 0.230641
98 2 0.157747 0.671242 0.19365
99 2 0.155899 0.686344 0.274891
100 1 0.396553 0.903543 0.105467
101 2 0.434318 0.928907 0.140201
102 2 0.343634 0.926464 0.12025
103 1 0.492466 0.955202 0.236339
104 2 0.49333 0.0215103 0.242393
105 2 0.450127 0.934163 0.268671
106 1 0.389084 0.875708 0.354975
107 2 0.334607 0.89901 0.363858
108 2 0.419559 0.891657 0.397696
109 1 0.184699 0.637093 0.358691
110 2 0.185253 0.571807 0.369569
111 2 0.241703 0.653283 0.353075
112 1 0.228135 0.924802 0.380724
113 2 0.192179 0.915808 0.421335
114 2 0.193297 0.916817 0.339244
115 1 0.388562 0.705416 0.117107
116 2 0.386263 0.770901 0.127045
117 2 0.412814 0.701292 0.0698738
118 1 0.366086 0.672618 0.358512
119 2 0.396539 0.651867 0.317044
120 2 0.368309 0.739258 0.355907
182 2 0.0270992 0.656675 0.239284
8 2 0.480636 0.500938 0.24845
136 1 0.464043 0.624738 0.469999
124 1 0.134904 0.899179 0.259426
125 2 0.0820089 0.918937 0.242047
126 2 0.129127 0.833379 0.26664
127 1 0.222481 0.937317 0.126933
128 2 0.188421 0.917852 0.166574
129 2 0.194203 0.915385 0.0846531
130 1 0.21275 0.6468 0.0930436
131 2 0.2147 0.580135 0.0954164
132 2 0.269441 0.665732 0.0939032
239 2 0.175708 0.167007 0.0220143
135 2 0.431987 0.637881 0.195563
144 2 0.125549 0.678069 0.440643
137 2 0.428346 0.646427 0.432209
139 1 0.463854 0.937919 0.484549
27 2 0.0617469 0.384773 0.483931
142 1 0.104203 0.705115 0.484247
140 2 0.461714 1.00319 0.495332
123 2 0.0804508 0.92607 0.50081
200 2 0.479215 0.492098 0.745599
47 2 0.177261 0.171494 0.533694
141 2 0.448278 0.908019 0.528904
143 2 0.129001 0.669575 0.522421
193 1 0.153637 0.168191 0.734669
194 2 0.186404 0.15788 0.692209
195 2 0.188016 0.148257 0.773956
196 1 0.399296 0.404363 0.617925
197 2 0.417315 0.421085 0.665626
198 2 0.343011 0.424638 0.615855
199 1 0.478826 0.425647 0.750672
315 2 0.101464 0.927127 0.9929
201 2 0.43797 0.413723 0.787032
202 1 0.376331 0.371972 0.860664
203 2 0.328083 0.410303 0.857162
204 2 0.406588 0.397423 0.900633
205 1 0.245884 0.118469 0.860276
206 2 0.238322 0.0523882 0.863651
207 2 0.303857 0.126228 0.852052
208 1 0.226267 0.463744 0.851445
209 2 0.195565 0.454093 0.895169
210 2 0.200177 0.424016 0.816573
211 1 0.39731 0.214065 0.63898
212 2 0.401485 0.280281 0.633392
213 2 0.41918 0.189255 0.594776
214 1 0.418245 0.175809 0.869061
215 2 0.443626 0.158798 0.824081
216 2 0.401989 0.239444 0.862464
122 2 0.126037 0.837281 0.520147
331 1 0.465659 0.961517 0.967827
334 1 0.104895 0.701113 0.960135
220 1 0.159227 0.366921 0.735966
221 2 0.107177 0.395153 0.724803
222 2 0.148846 0.301267 0.73344
223 1 0.22877 0.436792 0.618331
224 2 0.208103 0.41164 0.662863
225 2 0.189397 0.417704 0.58256
226 1 0.250621 0.144986 0.610199
227 2 0.260849 0.0797419 0.603779
228 2 0.300492 0.168681 0.631134