ITEM: TIMESTEP
0
ITEM: NUMBER OF ATOMS
288
ITEM: BOX BOUNDS pp pp pp
-2.0449999999999999e+00 1.2884000000000000e+01
-1.0298000000000000e+01 1.5369999999999999e+01
-1.2279999999999999e+01 1.5630000000000001e+01
ITEM: ATOMS id type xs ys zs
7 1 0.449126 0.323476 0.324295
8 2 0.426612 0.300383 0.348381
17 2 0.410823 0.325913 0.438553
43 1 0.815194 0.143447 0.214943
44 2 0.792657 0.120377 0.239041
45 2 0.866035 0.159743 0.229505
46 1 0.626696 0.294136 0.45217
47 2 0.651846 0.260897 0.444376
48 2 0.580985 0.286545 0.475184
52 1 0.780024 0.179132 0.34464
53 2 0.776823 0.145904 0.329166
54 2 0.768981 0.203778 0.319588
58 1 0.693486 0.19534 0.431708
59 2 0.720851 0.190325 0.401038
60 2 0.732982 0.17836 0.453755
64 1 0.745397 0.247043 0.269078
65 2 0.791141 0.254638 0.246083
66 2 0.720246 0.280282 0.276872
67 1 0.859466 0.086957 0.411001
68 2 0.799122 0.0779122 0.402929
69 2 0.854265 0.106668 0.439981
187 1 0.815194 0.143447 0.493696
4 1 0.312542 0.525831 0.398925
5 2 0.285179 0.53088 0.429591
6 2 0.273063 0.542806 0.376866
9 2 0.499966 0.339769 0.33886
13 1 0.146563 0.634252 0.419633
14 2 0.206913 0.643307 0.427683
15 2 0.151738 0.614539 0.390652
16 1 0.414026 0.35916 0.453992
18 2 0.402908 0.383773 0.428923
19 1 0.403511 0.541607 0.294877
20 2 0.349307 0.522293 0.290396
21 2 0.448385 0.515602 0.300178
28 1 0.379399 0.427071 0.378465
29 2 0.354167 0.460298 0.386227
30 2 0.425075 0.434672 0.355434
34 1 0.226004 0.542038 0.485993
40 1 0.678609 0.34584 0.289538
41 2 0.651243 0.350855 0.320209
42 2 0.639113 0.36282 0.267492
49 1 0.512628 0.454223 0.310246
50 2 0.51783 0.434512 0.281266
51 2 0.572972 0.463268 0.318318
55 1 0.769578 0.361614 0.185525
56 2 0.814433 0.335597 0.190824
57 2 0.715371 0.342313 0.181008
62 2 0.50606 0.381437 0.491778
63 2 0.579438 0.420803 0.482242
70 1 0.59207 0.362046 0.376641
71 2 0.603116 0.337414 0.401703
72 2 0.595277 0.395283 0.3921
79 1 0.449128 0.602267 0.214943
80 2 0.42659 0.579197 0.239041
81 2 0.499969 0.618563 0.229505
88 1 0.414025 0.637951 0.344639
89 2 0.41083 0.604716 0.329178
90 2 0.402912 0.662583 0.319585
94 1 0.327424 0.654159 0.431707
95 2 0.366894 0.637186 0.453771
96 2 0.35481 0.64912 0.401045
103 1 0.493461 0.545738 0.411001
104 2 0.488238 0.565451 0.43998
105 2 0.433123 0.536691 0.402919
109 1 0.602518 0.458357 0.42637
110 2 0.557681 0.484383 0.421067
111 2 0.656737 0.477647 0.430889
112 1 0.678609 0.624631 0.180187
113 2 0.639113 0.64161 0.158141
114 2 0.651243 0.629646 0.210857
115 1 0.815192 0.422276 0.105556
116 2 0.866032 0.438569 0.120122
117 2 0.792678 0.399183 0.129642
118 1 0.626698 0.572927 0.342818
119 2 0.580954 0.565333 0.365812
120 2 0.651848 0.539688 0.335023
124 1 0.780025 0.457924 0.235254
125 2 0.776817 0.424688 0.219796
126 2 0.768978 0.482557 0.210192
127 1 0.769577 0.640407 0.0761378
128 2 0.715373 0.621093 0.0716573
129 2 0.814451 0.614402 0.0814393
130 1 0.693486 0.47413 0.322357
131 2 0.732982 0.457151 0.344403
132 2 0.720851 0.469115 0.291687
134 2 0.50606 0.660228 0.382391
136 1 0.745399 0.525869 0.159726
137 2 0.720254 0.559112 0.167512
138 2 0.791109 0.53345 0.136709
139 1 0.859466 0.365748 0.301649
140 2 0.799122 0.356703 0.293578
141 2 0.854265 0.385458 0.330629
142 1 0.592069 0.640838 0.267288
144 2 0.603126 0.616196 0.29234
199 1 0.769578 0.361614 0.464278
200 2 0.715371 0.342313 0.459761
201 2 0.814433 0.335597 0.469577
223 1 0.449128 0.602267 0.493696
256 1 0.678609 0.624631 0.45894
257 2 0.639113 0.64161 0.436894
258 2 0.651243 0.629646 0.48961
259 1 0.815192 0.422276 0.384309
260 2 0.866032 0.438569 0.398875
261 2 0.792678 0.399183 0.408395
269 2 0.776817 0.424688 0.498549
270 2 0.768978 0.482557 0.488945
271 1 0.769577 0.640407 0.354891
272 2 0.715373 0.621093 0.35041
273 2 0.814451 0.614402 0.360192
280 1 0.745399 0.525869 0.438479
281 2 0.791109 0.53345 0.415462
282 2 0.720254 0.559112 0.446265
76 1 0.312543 0.80466 0.289538
77 2 0.273046 0.82164 0.267492
78 2 0.285177 0.809675 0.320209
82 1 0.260629 0.75292 0.45217
83 2 0.214921 0.74532 0.475184
84 2 0.285794 0.719685 0.444373
85 1 0.146562 0.913043 0.310246
86 2 0.151764 0.893332 0.281266
87 2 0.206906 0.922088 0.318318
91 1 0.403513 0.820399 0.185525
92 2 0.349302 0.801101 0.181009
93 2 0.448363 0.794381 0.190825
98 2 0.213351 0.879607 0.482253
99 2 0.139996 0.840222 0.491774
100 1 0.379396 0.705861 0.269079
101 2 0.425101 0.713477 0.246068
102 2 0.354184 0.739086 0.276868
106 1 0.226004 0.820831 0.376642
107 2 0.237121 0.796217 0.401711
108 2 0.229206 0.854078 0.392081
121 1 0.512628 0.733052 0.200894
122 2 0.517832 0.713313 0.17193
123 2 0.572973 0.742096 0.208964
133 1 0.556901 0.676524 0.396952
135 2 0.579438 0.699594 0.372854
143 2 0.595281 0.674068 0.282757
235 1 0.403513 0.820399 0.464278
236 2 0.349302 0.801101 0.459762
237 2 0.448363 0.794381 0.469578
265 1 0.512628 0.733052 0.479647
266 2 0.572973 0.742096 0.487717
267 2 0.517832 0.713313 0.450683
31 1 0.493461 0.266948 0.520389
32 2 0.433123 0.2579 0.512306
33 2 0.488238 0.28666 0.549367
37 1 0.602518 0.179566 0.535758
38 2 0.656746 0.198856 0.540241
39 2 0.557678 0.20559 0.530454
151 1 0.449126 0.323476 0.603048
153 2 0.426612 0.300383 0.627134
161 2 0.410823 0.325913 0.717306
175 1 0.493461 0.266948 0.799142
176 2 0.488238 0.28666 0.82812
177 2 0.433123 0.2579 0.79106
181 1 0.602518 0.179566 0.814511
182 2 0.656746 0.198856 0.818994
183 2 0.557678 0.20559 0.809207
188 2 0.792657 0.120377 0.517794
189 2 0.866035 0.159743 0.508258
190 1 0.626696 0.294136 0.730923
191 2 0.580985 0.286545 0.753937
192 2 0.651846 0.260897 0.723129
196 1 0.780024 0.179132 0.623393
197 2 0.776823 0.145904 0.607919
198 2 0.768981 0.203778 0.598341
202 1 0.693486 0.19534 0.710462
203 2 0.720851 0.190325 0.679791
204 2 0.732982 0.17836 0.732508
208 1 0.745397 0.247043 0.547831
209 2 0.720246 0.280282 0.555625
210 2 0.791141 0.254638 0.524837
211 1 0.859466 0.086957 0.689754
212 2 0.799122 0.0779122 0.681682
213 2 0.854265 0.106668 0.718734
1 1 0.236454 0.359592 0.645109
2 2 0.191629 0.385624 0.639805
3 2 0.290695 0.378872 0.649587
10 1 0.26063 0.47413 0.561557
11 2 0.21489 0.466526 0.58455
12 2 0.285796 0.440895 0.553759
22 1 0.327421 0.375329 0.541062
23 2 0.366884 0.358363 0.563134
24 2 0.354855 0.370317 0.510408
25 1 0.190836 0.577724 0.615691
26 2 0.139996 0.561431 0.601125
27 2 0.213351 0.600817 0.591605
35 2 0.229206 0.575282 0.501439
36 2 0.23712 0.517419 0.511058
61 1 0.556901 0.397733 0.50634
73 1 0.236456 0.638384 0.535758
74 2 0.19161 0.664404 0.530452
75 2 0.290681 0.657679 0.540235
145 1 0.236454 0.359592 0.923863
146 2 0.191629 0.385624 0.918558
147 2 0.290695 0.378872 0.92834
148 1 0.312542 0.525831 0.677678
149 2 0.285179 0.53088 0.708344
150 2 0.273063 0.542806 0.655619
152 2 0.499966 0.339769 0.617614
154 1 0.26063 0.47413 0.84031
155 2 0.21489 0.466526 0.863304
156 2 0.285796 0.440895 0.832513
157 1 0.146563 0.634252 0.698386
158 2 0.206913 0.643307 0.706436
159 2 0.151738 0.614539 0.669405
160 1 0.414026 0.35916 0.732745
162 2 0.402908 0.383773 0.707676
163 1 0.403511 0.541607 0.57363
164 2 0.349307 0.522293 0.569149
165 2 0.448385 0.515602 0.578931
166 1 0.327421 0.375329 0.819815
167 2 0.366884 0.358363 0.841887
168 2 0.354855 0.370317 0.789161
169 1 0.190836 0.577724 0.894444
170 2 0.213351 0.600817 0.870358
171 2 0.139996 0.561431 0.879878
172 1 0.379399 0.427071 0.657218
173 2 0.425075 0.434672 0.634187
174 2 0.354167 0.460298 0.66498
178 1 0.226004 0.542038 0.764747
179 2 0.229206 0.575282 0.780192
180 2 0.23712 0.517419 0.789811
184 1 0.678609 0.34584 0.568292
185 2 0.639113 0.36282 0.546245
186 2 0.651243 0.350855 0.598962
193 1 0.512628 0.454223 0.588999
194 2 0.51783 0.434512 0.560019
195 2 0.572972 0.463268 0.597071
205 1 0.556901 0.397733 0.785093
206 2 0.50606 0.381437 0.770531
207 2 0.579438 0.420803 0.760995
214 1 0.59207 0.362046 0.655394
215 2 0.603116 0.337414 0.680456
216 2 0.595277 0.395283 0.670853
217 1 0.236456 0.638384 0.814511
218 2 0.19161 0.664404 0.809205
219 2 0.290681 0.657679 0.818988
224 2 0.42659 0.579197 0.517794
225 2 0.499969 0.618563 0.508258
232 1 0.414025 0.637951 0.623392
233 2 0.41083 0.604716 0.607931
234 2 0.402912 0.662583 0.598338
238 1 0.327424 0.654159 0.71046
239 2 0.35481 0.64912 0.679798
240 2 0.366894 0.637186 0.732524
247 1 0.493461 0.545738 0.689754
248 2 0.488238 0.565451 0.718733
249 2 0.433123 0.536691 0.681672
253 1 0.602518 0.458357 0.705123
254 2 0.557681 0.484383 0.69982
255 2 0.656737 0.477647 0.709642
262 1 0.626698 0.572927 0.621571
263 2 0.651848 0.539688 0.613776
264 2 0.580954 0.565333 0.644565
268 1 0.780025 0.457924 0.514007
274 1 0.693486 0.47413 0.60111
275 2 0.732982 0.457151 0.623156
276 2 0.720851 0.469115 0.57044
278 2 0.50606 0.660228 0.661144
283 1 0.859466 0.365748 0.580402
284 2 0.799122 0.356703 0.572331
285 2 0.854265 0.385458 0.609383
286 1 0.592069 0.640838 0.546041
288 2 0.603126 0.616196 0.571093
97 1 0.190836 0.856515 0.506339
220 1 0.312543 0.80466 0.568292
221 2 0.273046 0.82164 0.546245
222 2 0.285177 0.809675 0.598962
226 1 0.260629 0.75292 0.730923
227 2 0.214921 0.74532 0.753937
228 2 0.285794 0.719685 0.723126
229 1 0.146562 0.913043 0.588999
230 2 0.151764 0.893332 0.560019
231 2 0.206906 0.922088 0.597071
241 1 0.190836 0.856515 0.785092
242 2 0.213351 0.879607 0.761006
243 2 0.139996 0.840222 0.770527
244 1 0.379396 0.705861 0.547832
245 2 0.354184 0.739086 0.555621
246 2 0.425101 0.713477 0.524822
250 1 0.226004 0.820831 0.655395
251 2 0.237121 0.796217 0.680464
252 2 0.229206 0.854078 0.670834
277 1 0.556901 0.676524 0.675706
279 2 0.579438 0.699594 0.651607
287 2 0.595281 0.674068 0.56151
ITEM: TIMESTEP
500
ITEM: NUMBER OF ATOMS
288
ITEM: BOX BOUNDS pp pp pp
-1.2287658307129066e+00 1.2067765830712876e+01
-8.8946174119323871e+00 1.3966617411932386e+01
-1.0754037399370150e+01 1.4104037399370151e+01
ITEM: ATOMS id type xs ys zs
7 1 0.346173 0.396405 0.22555
8 2 0.302794 0.375631 0.201498
17 2 0.451379 0.312314 0.440944
43 1 0.79214 0.0998083 0.184319
44 2 0.792923 0.129451 0.157143
45 2 0.723746 0.0985232 0.196241
46 1 0.615139 0.277258 0.4359
47 2 0.679054 0.260317 0.427513
48 2 0.575784 0.245262 0.449049
52 1 0.891546 0.218053 0.309253
53 2 0.853675 0.182596 0.312115
54 2 0.956524 0.205808 0.297125
58 1 0.820047 0.254388 0.413227
59 2 0.850248 0.255322 0.378296
60 2 0.85029 0.221436 0.4306
64 1 0.776765 0.266643 0.215599
65 2 0.817023 0.2594 0.246805
66 2 0.713776 0.280027 0.229571
67 1 0.728721 0.115931 0.358382
68 2 0.65696 0.113451 0.356563
69 2 0.743482 0.115909 0.396059
187 1 0.812054 0.124827 0.463316
4 1 0.284298 0.498447 0.398111
5 2 0.266109 0.492891 0.435005
6 2 0.263617 0.537584 0.390108
9 2 0.323232 0.38567 0.260677
13 1 0.103064 0.681327 0.451382
14 2 0.147709 0.652148 0.437543
15 2 0.137844 0.717478 0.445864
16 1 0.381579 0.312342 0.45032
18 2 0.350262 0.335787 0.423184
19 1 0.37346 0.581099 0.282176
20 2 0.304317 0.569992 0.285295
21 2 0.409985 0.545501 0.287508
28 1 0.341005 0.386957 0.360611
29 2 0.313892 0.4253 0.36591
30 2 0.406587 0.39358 0.345974
236 2 0.468426 0.83539 0.407388
40 1 0.582303 0.304821 0.245522
41 2 0.560538 0.316105 0.280717
42 2 0.542281 0.32794 0.221614
49 1 0.474384 0.468442 0.295527
50 2 0.44841 0.441962 0.269148
51 2 0.544846 0.470582 0.287945
55 1 0.757399 0.37049 0.147457
56 2 0.77924 0.33485 0.163921
57 2 0.763544 0.363442 0.109653
223 1 0.419784 0.602912 0.495052
63 2 0.558245 0.396248 0.499695
70 1 0.55415 0.349012 0.357553
71 2 0.587262 0.320784 0.379785
72 2 0.576067 0.386005 0.371228
79 1 0.550915 0.618735 0.231629
80 2 0.486643 0.603649 0.241998
81 2 0.594402 0.609027 0.260973
88 1 0.391935 0.69387 0.333183
89 2 0.397991 0.667071 0.30379
90 2 0.36891 0.729433 0.317042
94 1 0.265409 0.625332 0.411533
95 2 0.305129 0.629691 0.443383
96 2 0.303483 0.644547 0.384058
103 1 0.479964 0.541937 0.403405
104 2 0.45609 0.562435 0.434444
105 2 0.425339 0.516969 0.39336
109 1 0.593432 0.445439 0.43562
110 2 0.554063 0.480387 0.433297
111 2 0.65334 0.457146 0.454036
112 1 0.656905 0.591038 0.146858
113 2 0.596076 0.587978 0.126479
114 2 0.636052 0.606156 0.180978
115 1 0.755107 0.341575 0.02948
116 2 0.7255 0.309038 0.0111579
117 2 0.746671 0.373772 0.0052986
118 1 0.624659 0.586856 0.330708
119 2 0.576065 0.580774 0.358546
120 2 0.646115 0.548334 0.320959
124 1 0.837489 0.455465 0.210807
125 2 0.80607 0.426538 0.188631
126 2 0.8684 0.481854 0.185917
127 1 0.77508 0.692224 0.12042
128 2 0.72943 0.660039 0.123503
129 2 0.793062 0.701358 0.156735
130 1 0.678179 0.477947 0.28822
131 2 0.720286 0.474258 0.319254
132 2 0.721834 0.469997 0.258502
134 2 0.500692 0.6974 0.378962
136 1 0.86571 0.572859 0.153822
137 2 0.795868 0.56394 0.149461
138 2 0.877493 0.604807 0.129762
139 1 0.91855 0.391751 0.292615
140 2 0.988424 0.401771 0.292333
141 2 0.889026 0.416673 0.266021
142 1 0.731148 0.783123 0.236448
144 2 0.78308 0.812074 0.237604
199 1 0.805639 0.370548 0.447306
200 2 0.774357 0.335152 0.435379
201 2 0.874148 0.36699 0.435978
267 2 0.522375 0.726056 0.46674
256 1 0.66748 0.606275 0.452216
257 2 0.638651 0.634789 0.428627
97 1 0.306378 0.939802 0.468481
259 1 0.807237 0.471729 0.373015
260 2 0.863595 0.456197 0.353803
261 2 0.788533 0.441289 0.397471
258 2 0.649916 0.619412 0.487539
237 2 0.494318 0.810497 0.462078
271 1 0.732735 0.693936 0.320677
272 2 0.708902 0.656615 0.332565
273 2 0.788006 0.702558 0.344021
280 1 0.861929 0.553939 0.469717
281 2 0.8859 0.549776 0.433622
282 2 0.794729 0.568316 0.465839
76 1 0.180496 0.899344 0.282118
77 2 0.153589 0.927378 0.306817
78 2 0.176204 0.918066 0.247765
82 1 0.251245 0.77685 0.450413
83 2 0.281177 0.761644 0.482507
84 2 0.30673 0.791357 0.429844
85 1 0.0453338 0.961892 0.338939
86 2 0.0695854 0.963444 0.375155
87 2 0.974257 0.956578 0.342491
91 1 0.444316 0.746456 0.146394
92 2 0.503784 0.752755 0.125501
93 2 0.4642 0.754998 0.182547
98 2 0.361081 0.912635 0.467252
99 2 0.253514 0.921009 0.448895
100 1 0.352628 0.812008 0.300146
101 2 0.410817 0.813589 0.27754
102 2 0.299639 0.827743 0.278487
106 1 0.157324 0.880787 0.413699
107 2 0.167543 0.845012 0.432924
108 2 0.176557 0.87193 0.377509
121 1 0.530959 0.757741 0.247592
122 2 0.522301 0.716267 0.249962
123 2 0.601509 0.762952 0.241688
133 1 0.56022 0.701684 0.400235
135 2 0.611584 0.711655 0.374878
143 2 0.746824 0.757071 0.265389
235 1 0.442654 0.831085 0.443112
189 2 0.861354 0.0963009 0.473229
32 2 0.419253 0.2261 0.471392
31 1 0.477181 0.206538 0.485469
188 2 0.793984 0.14329 0.496484
34 1 0.225974 0.507302 0.51392
279 2 0.694255 0.684847 0.781737
33 2 0.469542 0.208943 0.523683
37 1 0.560709 0.105813 0.553503
38 2 0.504854 0.121129 0.573273
39 2 0.547486 0.116565 0.516977
151 1 0.458989 0.202218 0.596251
153 2 0.395837 0.221174 0.602328
161 2 0.409883 0.315063 0.740958
175 1 0.567519 0.228864 0.8417
176 2 0.51592 0.205151 0.826061
177 2 0.559213 0.266371 0.825197
181 1 0.766093 0.190613 0.816465
182 2 0.805416 0.184019 0.848131
183 2 0.70184 0.202789 0.829705
62 2 0.465819 0.358813 0.508498
265 1 0.511415 0.740804 0.502287
190 1 0.754999 0.253249 0.712613
191 2 0.764631 0.253839 0.750758
192 2 0.762117 0.212961 0.702886
196 1 0.858079 0.0883249 0.604497
197 2 0.876337 0.101604 0.639674
198 2 0.810519 0.116628 0.591961
202 1 0.829165 0.134839 0.726263
203 2 0.805429 0.0953235 0.726162
204 2 0.812084 0.149321 0.761206
208 1 0.73608 0.174993 0.56022
209 2 0.715692 0.214598 0.554196
210 2 0.674431 0.154016 0.564945
211 1 0.714006 0.0188531 0.651219
212 2 0.759986 0.043568 0.632236
213 2 0.675904 0.999951 0.623573
1 1 0.261354 0.261793 0.629891
2 2 0.195288 0.246663 0.636174
3 2 0.280512 0.279005 0.663451
10 1 0.206313 0.45208 0.610768
11 2 0.25762 0.448673 0.63758
12 2 0.220431 0.421233 0.585866
22 1 0.245083 0.354538 0.542466
23 2 0.252569 0.32659 0.570842
35 2 0.208726 0.547937 0.514314
25 1 0.213328 0.58329 0.652738
26 2 0.166662 0.552396 0.659919
27 2 0.192525 0.598801 0.618759
287 2 0.577519 0.648127 0.580648
36 2 0.195944 0.491812 0.545872
61 1 0.527893 0.370091 0.524987
73 1 0.169778 0.630271 0.548741
74 2 0.133644 0.643786 0.517856
75 2 0.220771 0.659162 0.554395
145 1 0.295951 0.366066 0.929223
146 2 0.343029 0.366458 0.958337
147 2 0.284101 0.406486 0.921484
148 1 0.35536 0.550717 0.730971
149 2 0.323154 0.549683 0.765384
150 2 0.303524 0.562577 0.706596
152 2 0.505357 0.222737 0.618849
154 1 0.328967 0.483792 0.909145
155 2 0.389632 0.502272 0.897309
156 2 0.293025 0.513954 0.92766
157 1 0.238814 0.690727 0.741287
158 2 0.307334 0.692864 0.752894
159 2 0.23447 0.654422 0.722268
160 1 0.351626 0.313999 0.718377
162 2 0.346414 0.352807 0.704223
163 1 0.394272 0.535846 0.584298
164 2 0.331251 0.517632 0.576237
165 2 0.436378 0.504457 0.596187
166 1 0.344305 0.295186 0.83588
167 2 0.321076 0.327136 0.857422
168 2 0.302346 0.296042 0.804613
169 1 0.185384 0.624385 0.894921
170 2 0.153743 0.653167 0.872676
171 2 0.229515 0.646323 0.917672
172 1 0.360537 0.434425 0.698779
173 2 0.41546 0.439326 0.674314
174 2 0.358268 0.470293 0.718586
178 1 0.22209 0.519385 0.813624
179 2 0.173514 0.545767 0.828391
180 2 0.247926 0.498667 0.844085
184 1 0.659392 0.294558 0.563851
185 2 0.620931 0.316309 0.53819
186 2 0.623161 0.29877 0.596886
193 1 0.504965 0.440323 0.617537
194 2 0.501951 0.413665 0.587902
195 2 0.575233 0.447561 0.622524
205 1 0.525985 0.334201 0.767441
206 2 0.485353 0.333166 0.7992
207 2 0.546603 0.374167 0.764391
214 1 0.566162 0.27901 0.661687
215 2 0.631467 0.270595 0.675893
216 2 0.542215 0.310941 0.683029
217 1 0.0792964 0.7072 0.813563
218 2 0.131319 0.702054 0.787387
219 2 0.0399977 0.739071 0.800111
224 2 0.411975 0.57306 0.521712
277 1 0.667252 0.653605 0.760576
232 1 0.443182 0.659021 0.613148
233 2 0.424492 0.619846 0.603984
234 2 0.393395 0.682962 0.596181
238 1 0.455711 0.69425 0.72148
239 2 0.447421 0.676517 0.686893
240 2 0.522647 0.684044 0.732057
247 1 0.565084 0.554073 0.71665
248 2 0.591059 0.571365 0.748836
249 2 0.494555 0.56233 0.717639
253 1 0.608 0.438159 0.737774
254 2 0.593803 0.479184 0.736925
255 2 0.652805 0.431973 0.708191
262 1 0.723935 0.604172 0.654549
263 2 0.763786 0.569803 0.649216
264 2 0.660701 0.589807 0.667328
268 1 0.746859 0.454278 0.520996
274 1 0.704397 0.449052 0.630418
275 2 0.743076 0.414524 0.637163
276 2 0.706534 0.453754 0.592183
278 2 0.716836 0.646825 0.733381
283 1 0.799086 0.3379 0.645986
284 2 0.770216 0.323076 0.613466
285 2 0.795512 0.305851 0.670675
286 1 0.63328 0.636561 0.558758
288 2 0.683389 0.62407 0.583889
266 2 0.569447 0.728653 0.522123
220 1 0.189669 0.808508 0.567239
221 2 0.22161 0.845828 0.563778
222 2 0.1335 0.815541 0.590421
226 1 0.247342 0.80835 0.717527
227 2 0.314324 0.81529 0.704978
228 2 0.241916 0.766658 0.719346
229 1 0.215658 0.937226 0.567408
230 2 0.243881 0.937387 0.531997
231 2 0.261676 0.959824 0.588481
241 1 0.0471328 0.849356 0.771103
242 2 0.0193701 0.865084 0.738665
243 2 0.116041 0.841676 0.762533
244 1 0.317683 0.72135 0.543475
245 2 0.283961 0.755657 0.556165
246 2 0.378428 0.735689 0.527593
250 1 0.0791392 0.877704 0.65093
251 2 0.139192 0.859739 0.664239
252 2 0.102297 0.905949 0.625362
225 2 0.478009 0.624293 0.506244
269 2 0.776999 0.423237 0.500821
24 2 0.291392 0.341932 0.515375
270 2 0.795464 0.48513 0.52004
ITEM: TIMESTEP
1000
ITEM: NUMBER OF ATOMS
288
ITEM: BOX BOUNDS pp pp pp
-5.4111090581810650e-01 1.1380110905818061e+01
-7.7123060305806757e+00 1.2784306030580675e+01
-9.4684557158137181e+00 1.2818455715813720e+01
ITEM: ATOMS id type xs ys zs
7 1 0.216614 0.377193 0.273718
8 2 0.196682 0.332293 0.268713
17 2 0.319012 0.215363 0.420114
43 1 0.762699 0.181939 0.238089
44 2 0.691493 0.19797 0.224828
45 2 0.747186 0.161339 0.27572
46 1 0.580879 0.231614 0.41025
47 2 0.645587 0.245447 0.432252
48 2 0.547766 0.198446 0.43474
52 1 0.88696 0.285844 0.26467
53 2 0.899558 0.302512 0.225129
54 2 0.848556 0.245405 0.258442
58 1 0.82173 0.264928 0.399743
59 2 0.850486 0.275651 0.360884
60 2 0.863035 0.226999 0.411533
64 1 0.657919 0.304148 0.202207
65 2 0.709115 0.307909 0.235101
66 2 0.595098 0.330455 0.213583
67 1 0.693404 0.135252 0.353755
68 2 0.652177 0.171037 0.370323
69 2 0.739912 0.120451 0.386001
187 1 0.871833 0.140799 0.442112
4 1 0.290353 0.509731 0.39388
5 2 0.260048 0.516549 0.433146
6 2 0.233477 0.525438 0.36724
9 2 0.254059 0.378741 0.311675
13 1 0.0196562 0.712456 0.442191
14 2 0.0959073 0.698021 0.444225
15 2 0.0248349 0.758686 0.436844
16 1 0.259908 0.24647 0.415014
18 2 0.297622 0.28662 0.406439
19 1 0.335107 0.615967 0.231963
20 2 0.262919 0.599575 0.220753
21 2 0.384553 0.579562 0.227127
28 1 0.337832 0.380597 0.380035
29 2 0.317386 0.425191 0.386539
30 2 0.416952 0.381849 0.372858
236 2 0.359689 0.838437 0.403081
40 1 0.477767 0.384724 0.242948
41 2 0.51029 0.374359 0.281032
42 2 0.398997 0.378056 0.24852
49 1 0.507478 0.522873 0.236835
50 2 0.495546 0.478481 0.225158
51 2 0.587125 0.526675 0.240916
55 1 0.822363 0.31207 0.116429
56 2 0.765011 0.307264 0.146148
57 2 0.820206 0.272128 0.0942198
188 2 0.807691 0.133112 0.466948
31 1 0.431418 0.151795 0.468039
70 1 0.561716 0.35358 0.355045
71 2 0.566665 0.311265 0.373002
72 2 0.59413 0.38235 0.384084
79 1 0.53976 0.67752 0.224792
80 2 0.466538 0.658582 0.222233
81 2 0.579029 0.65054 0.252845
88 1 0.38276 0.686351 0.336362
89 2 0.365328 0.664609 0.299522
90 2 0.359806 0.730547 0.329957
94 1 0.244094 0.657518 0.434194
95 2 0.301716 0.651137 0.463511
96 2 0.283586 0.669003 0.398331
103 1 0.515875 0.551871 0.413581
104 2 0.499849 0.578639 0.447704
105 2 0.443771 0.540879 0.397638
109 1 0.568831 0.438661 0.469677
110 2 0.567154 0.48199 0.453703
111 2 0.643267 0.433748 0.485111
112 1 0.743553 0.695753 0.0571467
113 2 0.750414 0.708142 0.0983854
114 2 0.664572 0.690797 0.0509551
115 1 0.770577 0.195094 0.0648631
116 2 0.776208 0.152662 0.0825263
189 2 0.923408 0.106937 0.452744
118 1 0.661506 0.618312 0.324798
119 2 0.608357 0.600253 0.352364
120 2 0.694625 0.581179 0.305722
124 1 0.893737 0.467672 0.152515
125 2 0.864484 0.435876 0.125239
126 2 0.882439 0.508536 0.13264
127 1 0.738271 0.723038 0.182746
128 2 0.673026 0.698046 0.192628
129 2 0.765837 0.738246 0.220573
130 1 0.749563 0.518865 0.246571
131 2 0.777528 0.494786 0.280183
132 2 0.795472 0.505256 0.213643
134 2 0.521301 0.693384 0.390578
136 1 0.862738 0.597904 0.104494
137 2 0.808138 0.62648 0.0871657
138 2 0.914894 0.626423 0.123929
139 1 0.0331609 0.458969 0.251792
140 2 0.0960634 0.429984 0.250658
141 2 0.988512 0.446613 0.217963
142 1 0.832906 0.779868 0.283518
144 2 0.894088 0.80623 0.297123
199 1 0.906789 0.380567 0.448856
200 2 0.884298 0.337315 0.438045
201 2 0.97875 0.37512 0.467218
267 2 0.546116 0.755172 0.497471
256 1 0.712641 0.624876 0.475187
257 2 0.718995 0.662318 0.449759
97 1 0.30503 0.987716 0.472174
259 1 0.857127 0.458984 0.348201
260 2 0.908982 0.460957 0.315471
261 2 0.876244 0.41967 0.368987
117 2 0.703306 0.193447 0.0414791
237 2 0.405685 0.838355 0.466383
271 1 0.81849 0.702706 0.382575
272 2 0.785864 0.66386 0.366357
273 2 0.886719 0.688328 0.400936
280 1 0.893066 0.552906 0.441738
281 2 0.882913 0.516758 0.415107
282 2 0.822193 0.574836 0.441651
76 1 0.244435 0.948649 0.284208
77 2 0.180148 0.958995 0.260314
78 2 0.296214 0.983302 0.276386
82 1 0.0889029 0.854817 0.450495
83 2 0.0740021 0.852218 0.492622
84 2 0.168962 0.85646 0.447709
85 1 0.0149425 0.98671 0.25988
86 2 0.987416 0.984657 0.300173
87 2 0.966964 0.0175445 0.240358
91 1 0.512434 0.689639 0.0785079
92 2 0.485602 0.733486 0.0750765
93 2 0.522981 0.683257 0.12067
98 2 0.335674 0.946622 0.460055
99 2 0.233185 0.989548 0.453089
100 1 0.378505 0.824162 0.316065
101 2 0.451055 0.82079 0.297946
102 2 0.348624 0.864297 0.30103
106 1 0.114213 0.978453 0.400274
107 2 0.0859467 0.93937 0.418256
108 2 0.154905 0.96374 0.36582
121 1 0.599436 0.808346 0.258692
122 2 0.595852 0.76759 0.237828
123 2 0.677862 0.815633 0.264955
133 1 0.579167 0.713251 0.414073
135 2 0.636398 0.7241 0.385661
143 2 0.824538 0.747189 0.313861
235 1 0.347668 0.856806 0.442032
32 2 0.406061 0.108998 0.457514
24 2 0.265738 0.257145 0.499415
34 1 0.247182 0.506588 0.519926
279 2 0.728773 0.699661 0.670803
33 2 0.405345 0.158105 0.508235
37 1 0.494639 0.0188952 0.54388
38 2 0.464305 0.0511175 0.570385
39 2 0.43537 0.0101055 0.516069
151 1 0.395256 0.120038 0.602731
153 2 0.328792 0.144032 0.612378
161 2 0.362433 0.270845 0.730508
175 1 0.69292 0.236213 0.872824
176 2 0.637057 0.238708 0.903577
177 2 0.663862 0.262455 0.840888
181 1 0.871121 0.178046 0.814084
182 2 0.926027 0.211746 0.818651
183 2 0.808653 0.192495 0.837554
155 2 0.337381 0.588493 0.988733
269 2 0.825089 0.418398 0.529078
190 1 0.801418 0.159964 0.68619
191 2 0.843979 0.165016 0.722302
192 2 0.821196 0.117527 0.67174
196 1 0.894307 0.00361488 0.513007
197 2 0.940425 0.0092447 0.547772
198 2 0.826335 0.0262578 0.522407
202 1 0.867714 0.0317662 0.643489
203 2 0.82325 -0.00335203 0.628155
204 2 0.892257 0.0169224 0.682027
208 1 0.687407 0.0976887 0.515236
209 2 0.673729 0.135464 0.539392
210 2 0.622079 0.0711805 0.520575
211 1 0.679155 0.952891 0.591553
212 2 0.695071 0.937199 0.552016
213 2 0.602093 0.965867 0.590014
1 1 0.20995 0.19607 0.636285
2 2 0.148922 0.170287 0.650984
3 2 0.234356 0.220692 0.670354
10 1 0.176372 0.389285 0.572685
11 2 0.223791 0.400354 0.605805
12 2 0.196724 0.34542 0.562789
22 1 0.300772 0.270435 0.536067
23 2 0.267941 0.243022 0.566065
35 2 0.185239 0.535276 0.526999
25 1 0.175497 0.623278 0.671677
26 2 0.110675 0.647021 0.684516
27 2 0.158438 0.610205 0.631476
287 2 0.569217 0.663975 0.611614
36 2 0.219452 0.464252 0.530315
61 1 0.497356 0.340951 0.55025
73 1 0.112937 0.614018 0.549266
74 2 0.0450671 0.60435 0.528126
75 2 0.145372 0.649621 0.527568
145 1 0.309228 0.424165 0.926078
146 2 0.282316 0.402065 0.961057
147 2 0.319596 0.468363 0.938762
148 1 0.245001 0.514344 0.750011
149 2 0.251954 0.540715 0.785252
150 2 0.200888 0.540111 0.723075
152 2 0.450538 0.13601 0.630186
154 1 0.285329 0.56309 0.965865
270 2 0.837822 0.491867 0.528246
156 2 0.218464 0.58891 0.964936
157 1 0.278595 0.713713 0.765098
158 2 0.354257 0.700728 0.773056
159 2 0.257423 0.688988 0.730477
160 1 0.283764 0.279631 0.733317
162 2 0.275786 0.323244 0.718588
163 1 0.418143 0.539614 0.599815
164 2 0.362839 0.518274 0.575655
165 2 0.459279 0.504761 0.618045
166 1 0.386167 0.317994 0.854465
167 2 0.374244 0.362565 0.865557
168 2 0.328076 0.308835 0.82605
169 1 0.0671875 0.63971 0.950064
170 2 0.0674183 0.654348 0.909288
171 2 0.991219 0.645271 0.962967
172 1 0.300129 0.404611 0.677655
173 2 0.372706 0.413035 0.661018
174 2 0.284712 0.441886 0.702164
178 1 0.262306 0.594171 0.845528
179 2 0.191742 0.615733 0.850631
180 2 0.279116 0.576588 0.884278
184 1 0.651427 0.230316 0.560879
185 2 0.614008 0.267618 0.544554
186 2 0.622566 0.226523 0.600796
193 1 0.520047 0.424591 0.639135
194 2 0.524843 0.389546 0.610876
195 2 0.594672 0.429073 0.654417
205 1 0.578477 0.295124 0.768027
206 2 0.513796 0.302801 0.792462
207 2 0.614715 0.336698 0.765505
214 1 0.577249 0.197768 0.676487
215 2 0.649762 0.178712 0.682172
216 2 0.572851 0.231297 0.706278
217 1 0.100168 0.682706 0.837157
218 2 0.169106 0.699115 0.821144
219 2 0.0430621 0.705311 0.815278
224 2 0.441132 0.604971 0.548433
277 1 0.735658 0.717225 0.710419
232 1 0.424276 0.67485 0.641004
233 2 0.391912 0.632327 0.64486
234 2 0.376479 0.697026 0.613178
238 1 0.503284 0.665892 0.756099
239 2 0.482731 0.663632 0.714642
240 2 0.555218 0.70142 0.758246
247 1 0.502737 0.52992 0.744366
248 2 0.517596 0.572792 0.759403
249 2 0.422712 0.526281 0.745023
253 1 0.656047 0.42193 0.780337
254 2 0.599121 0.453122 0.77065
255 2 0.715456 0.430924 0.752667
262 1 0.708714 0.574043 0.68497
263 2 0.742627 0.531788 0.687126
264 2 0.637034 0.568645 0.703657
268 1 0.794045 0.457553 0.545557
274 1 0.767862 0.445777 0.665155
275 2 0.786201 0.400417 0.662423
276 2 0.778996 0.462181 0.625395
278 2 0.735265 0.679829 0.736131
283 1 0.792874 0.319252 0.624372
284 2 0.761019 0.292836 0.593334
285 2 0.825396 0.288651 0.651745
286 1 0.641641 0.661389 0.593243
288 2 0.679268 0.627288 0.614579
266 2 0.549263 0.781051 0.561056
220 1 0.135775 0.841613 0.598795
221 2 0.17115 0.882915 0.592231
222 2 0.113241 0.842651 0.639998
226 1 0.325325 0.847056 0.72304
227 2 0.33208 0.800572 0.721237
228 2 0.350223 0.858227 0.76255
229 1 0.232579 0.964708 0.594481
230 2 0.239608 0.984876 0.555936
231 2 0.296153 0.980051 0.616582
241 1 0.979984 0.752829 0.747698
242 2 0.0172156 0.793254 0.739632
243 2 0.918693 0.751864 0.71998
244 1 0.262468 0.73717 0.561875
245 2 0.2242 0.768962 0.585751
246 2 0.312157 0.762142 0.537176
250 1 0.0930102 0.870473 0.716967
251 2 0.172379 0.867638 0.722862
252 2 0.0794266 0.915725 0.709276
258 2 0.699022 0.64246 0.514294
62 2 0.426527 0.319488 0.545898
265 1 0.504428 0.781008 0.525437
63 2 0.494406 0.376399 0.522347
225 2 0.489084 0.662615 0.514608
223 1 0.431079 0.630395 0.51282
ITEM: TIMESTEP
1500
ITEM: NUMBER OF ATOMS
288
ITEM: BOX BOUNDS pp pp pp
-4.6868872527628724e-02 1.0885868872527594e+01
-6.8625368222947429e+00 1.1934536822294742e+01
-8.5444624711799371e+00 1.1894462471179938e+01
ITEM: ATOMS id type xs ys zs
7 1 0.0747162 0.342842 0.294641
8 2 0.00412051 0.32793 0.318697
17 2 0.252783 0.186784 0.407686
43 1 0.80993 0.208238 0.187331
44 2 0.747956 0.239713 0.171334
45 2 0.765898 0.167628 0.202923
46 1 0.626272 0.191188 0.379773
47 2 0.696192 0.197217 0.407399
48 2 0.561391 0.178931 0.409119
52 1 0.841781 0.282358 0.310333
53 2 0.780296 0.318122 0.304926
54 2 0.828677 0.250196 0.274715
58 1 0.89033 0.218699 0.433239
59 2 0.872274 0.236363 0.390396
60 2 0.928207 0.173524 0.42575
64 1 0.608642 0.316147 0.170709
65 2 0.598716 0.326554 0.216238
66 2 0.527233 0.308312 0.155071
67 1 0.654281 0.10794 0.260434
68 2 0.636682 0.139299 0.296104
69 2 0.705204 0.07182 0.279069
187 1 0.825446 0.0546626 0.374507
9 2 0.13842 0.311526 0.308858
16 1 0.199022 0.223439 0.392542
18 2 0.252389 0.260911 0.378748
28 1 0.326523 0.331687 0.319805
29 2 0.31384 0.377298 0.33948
30 2 0.409241 0.319757 0.330512
40 1 0.335801 0.364609 0.18072
41 2 0.344893 0.358806 0.226986
42 2 0.249615 0.360833 0.173283
50 2 0.393398 0.468874 0.214137
55 1 0.803618 0.419474 0.173588