ITEM: TIMESTEP
0
ITEM: NUMBER OF ATOMS
288
ITEM: BOX BOUNDS pp pp pp
-2.6299999999999999e+00 1.4667999999999999e+01
-2.6659999999999999e+00 1.4706000000000000e+01
-2.2069999999999999e+00 1.6262000000000000e+01
ITEM: ATOMS id type xs ys zs
2 2 0.301315 0.356044 0.489062
3 2 0.291136 0.274899 0.460733
4 1 0.385939 0.228238 0.298774
5 2 0.40208 0.201948 0.255809
6 2 0.391907 0.281685 0.28748
7 1 0.496647 0.420389 0.416374
8 2 0.479652 0.393394 0.458658
9 2 0.489999 0.473632 0.428176
10 1 0.231823 0.389594 0.324164
11 2 0.215951 0.348373 0.293151
12 2 0.188427 0.398151 0.355298
13 1 0.41912 0.497582 0.198386
14 2 0.404458 0.461094 0.234712
15 2 0.474318 0.499819 0.201377
16 1 0.387442 0.385793 0.306784
17 2 0.334351 0.389017 0.321078
18 2 0.415819 0.399206 0.349452
19 1 0.190543 0.499367 0.214682
20 2 0.227867 0.488204 0.177888
21 2 0.201416 0.463143 0.252384
22 1 0.269859 0.194394 0.394009
23 2 0.296331 0.210555 0.35111
24 2 0.216202 0.200375 0.382654
25 1 0.300726 0.458322 0.486273
28 1 0.499129 0.191809 0.405167
29 2 0.487958 0.228988 0.441959
30 2 0.462741 0.202651 0.367477
31 1 0.192393 0.27159 0.23109
32 2 0.229897 0.286302 0.195583
33 2 0.190204 0.216638 0.227884
34 1 0.462596 0.304687 0.130703
35 2 0.48982 0.289017 0.173348
36 2 0.40914 0.299211 0.143066
38 2 0.686562 0.356045 0.489065
39 2 0.676329 0.274903 0.460744
40 1 0.771129 0.228238 0.298773
41 2 0.787321 0.201951 0.255823
42 2 0.777094 0.281686 0.287484
43 1 0.881893 0.420389 0.416375
44 2 0.864847 0.393398 0.458643
45 2 0.875248 0.473633 0.428172
46 1 0.617066 0.389594 0.324166
47 2 0.601208 0.348373 0.293146
48 2 0.573655 0.398153 0.35528
49 1 0.804367 0.497582 0.198386
50 2 0.789705 0.461094 0.234712
51 2 0.859565 0.499819 0.201377
52 1 0.772634 0.385793 0.306784
53 2 0.719545 0.389018 0.321084
54 2 0.801016 0.399205 0.349449
55 1 0.575734 0.499366 0.21468
56 2 0.613086 0.488218 0.177907
57 2 0.586599 0.463147 0.252388
58 1 0.655048 0.194394 0.394009
59 2 0.68152 0.210555 0.35111
60 2 0.601391 0.200375 0.382654
61 1 0.685916 0.458323 0.486274
64 1 0.884375 0.191809 0.405167
65 2 0.873205 0.228988 0.441959
66 2 0.847987 0.202651 0.367477
67 1 0.577582 0.27159 0.23109
68 2 0.615086 0.286302 0.195583
69 2 0.575393 0.216638 0.227884
70 1 0.847843 0.304687 0.130703
71 2 0.875067 0.289017 0.173348
72 2 0.794387 0.299211 0.143066
26 2 0.291897 0.501273 0.45488
74 2 0.301308 0.739642 0.489042
75 2 0.29114 0.658482 0.460744
76 1 0.385939 0.61179 0.298774
77 2 0.402081 0.585503 0.255807
78 2 0.391904 0.665238 0.287484
79 1 0.496647 0.803995 0.416374
80 2 0.479652 0.777 0.458658
81 2 0.489999 0.857237 0.428176
82 1 0.231821 0.773199 0.324164
83 2 0.215968 0.731979 0.293142
84 2 0.188429 0.781715 0.355312
85 1 0.41912 0.881188 0.198386
86 2 0.404458 0.8447 0.234712
87 2 0.474318 0.883425 0.201377
88 1 0.387442 0.769341 0.306784
89 2 0.334351 0.772565 0.321078
90 2 0.415819 0.782754 0.349452
91 1 0.190544 0.882971 0.214683
92 2 0.227864 0.871817 0.177883
93 2 0.201403 0.846718 0.252364
94 1 0.269858 0.578 0.39401
95 2 0.296335 0.594109 0.351096
96 2 0.216203 0.583982 0.38265
97 1 0.300728 0.841875 0.486272
98 2 0.291878 0.88483 0.454888
100 1 0.49913 0.575412 0.405166
101 2 0.487944 0.612564 0.441978
102 2 0.462737 0.586264 0.367482
103 1 0.192393 0.655196 0.23109
104 2 0.229897 0.669908 0.195583
105 2 0.190204 0.600244 0.227884
106 1 0.462596 0.688293 0.130703
107 2 0.48982 0.672622 0.173348
108 2 0.40914 0.682817 0.143066
62 2 0.677128 0.50127 0.454866
110 2 0.686556 0.739642 0.489045
111 2 0.676333 0.658486 0.460756
112 1 0.771129 0.611789 0.298773
113 2 0.787322 0.585507 0.255821
114 2 0.777091 0.665239 0.287488
115 1 0.881893 0.803995 0.416375
116 2 0.864847 0.777003 0.458643
117 2 0.875248 0.857239 0.428172
118 1 0.617065 0.773198 0.324165
119 2 0.601226 0.731979 0.293136
120 2 0.573657 0.781718 0.355294
121 1 0.804367 0.881188 0.198386
122 2 0.789705 0.8447 0.234712
123 2 0.859565 0.883425 0.201377
124 1 0.772634 0.769341 0.306784
125 2 0.719545 0.772566 0.321084
126 2 0.801016 0.782753 0.349449
127 1 0.575735 0.88297 0.214682
128 2 0.613083 0.871831 0.177902
129 2 0.586585 0.846722 0.252369
130 1 0.655047 0.578 0.39401
131 2 0.681524 0.594109 0.351096
132 2 0.601392 0.583982 0.38265
133 1 0.685918 0.841877 0.486273
134 2 0.677108 0.884827 0.454874
136 1 0.884377 0.575412 0.405166
137 2 0.873191 0.612564 0.441978
138 2 0.847984 0.586264 0.367482
139 1 0.577582 0.655196 0.23109
140 2 0.615086 0.669908 0.195583
141 2 0.575393 0.600244 0.227884
142 1 0.847843 0.688293 0.130703
143 2 0.875067 0.672622 0.173348
144 2 0.794387 0.682817 0.143066
1 1 0.304601 0.30319 0.503381
27 2 0.343008 0.474004 0.516277
145 1 0.304603 0.303189 0.878773
146 2 0.301304 0.356047 0.864467
147 2 0.291121 0.274908 0.836123
148 1 0.385939 0.228238 0.67416
149 2 0.40208 0.201948 0.631195
150 2 0.391907 0.281685 0.662866
151 1 0.496649 0.420389 0.791809
152 2 0.479632 0.393403 0.834091
153 2 0.489986 0.473633 0.803594
154 1 0.231823 0.389593 0.699603
155 2 0.215949 0.348397 0.668562
156 2 0.188421 0.398141 0.730732
157 1 0.419121 0.49758 0.573775
158 2 0.404444 0.461121 0.610122
159 2 0.474316 0.499836 0.5768
160 1 0.387441 0.385792 0.682221
161 2 0.334354 0.38902 0.696528
162 2 0.415831 0.399218 0.724877
163 1 0.190543 0.499367 0.590069
164 2 0.227888 0.488208 0.553292
165 2 0.201404 0.463149 0.627779
166 1 0.269859 0.194392 0.769399
167 2 0.296322 0.210574 0.726502
168 2 0.2162 0.200388 0.758062
169 1 0.300725 0.458322 0.861712
171 2 0.343008 0.474015 0.89171
172 1 0.499129 0.191809 0.780607
173 2 0.487958 0.228988 0.817399
174 2 0.462741 0.202651 0.742917
175 1 0.192391 0.271589 0.606477
176 2 0.229922 0.286307 0.570998
177 2 0.190208 0.216638 0.603266
178 1 0.462597 0.304686 0.506091
179 2 0.489808 0.289031 0.54875
180 2 0.409137 0.299215 0.518443
37 1 0.689847 0.30319 0.503381
63 2 0.728198 0.473987 0.516287
181 1 0.689849 0.303189 0.878772
182 2 0.686552 0.356048 0.86447
183 2 0.676314 0.274912 0.836134
184 1 0.771129 0.228238 0.674159
185 2 0.787321 0.201951 0.631209
186 2 0.777094 0.281686 0.66287
187 1 0.881895 0.420388 0.79181
188 2 0.864827 0.393407 0.834076
189 2 0.875234 0.473635 0.80359
190 1 0.617067 0.389593 0.699604
191 2 0.601206 0.348398 0.668556
192 2 0.573649 0.398143 0.730713
193 1 0.804368 0.49758 0.573775
194 2 0.789691 0.461121 0.610122
195 2 0.859563 0.499836 0.5768
196 1 0.772633 0.385792 0.682221
197 2 0.719548 0.389021 0.696534
198 2 0.801029 0.399217 0.724874
199 1 0.575734 0.499366 0.590068
200 2 0.613106 0.488222 0.553312
201 2 0.586587 0.463152 0.627783
202 1 0.655048 0.194392 0.769399
203 2 0.681511 0.210574 0.726502
204 2 0.601389 0.200388 0.758062
205 1 0.685915 0.458324 0.861712
207 2 0.728197 0.473998 0.89172
208 1 0.884375 0.191809 0.780607
209 2 0.873205 0.228988 0.817399
210 2 0.847987 0.202651 0.742917
211 1 0.57758 0.271589 0.606477
212 2 0.615111 0.286307 0.570998
213 2 0.575397 0.216638 0.603266
214 1 0.847844 0.304686 0.506091
215 2 0.875055 0.289031 0.54875
216 2 0.794384 0.299215 0.518443
73 1 0.304601 0.686794 0.503382
99 2 0.342997 0.857575 0.516285
170 2 0.291912 0.501253 0.83029
217 1 0.304603 0.686793 0.878773
218 2 0.301298 0.739644 0.864447
219 2 0.291125 0.658491 0.836134
220 1 0.385939 0.61179 0.67416
221 2 0.402081 0.585503 0.631192
222 2 0.391904 0.665238 0.66287
223 1 0.496649 0.803994 0.791809
224 2 0.479632 0.777009 0.834091
225 2 0.489986 0.857239 0.803594
226 1 0.231822 0.773198 0.699603
227 2 0.215966 0.732003 0.668552
228 2 0.188424 0.781705 0.730746
229 1 0.419121 0.881185 0.573775
230 2 0.404444 0.844727 0.610122
231 2 0.474316 0.883441 0.5768
232 1 0.387441 0.76934 0.682221
233 2 0.334354 0.772569 0.696528
234 2 0.415831 0.782766 0.724877
235 1 0.190544 0.882971 0.590071
236 2 0.227884 0.871821 0.553288
237 2 0.201391 0.846723 0.627759
238 1 0.269859 0.577998 0.7694
239 2 0.296325 0.594128 0.726488
240 2 0.216201 0.583995 0.758058
241 1 0.300727 0.841876 0.861711
242 2 0.291892 0.88481 0.830298
243 2 0.342996 0.857586 0.891719
244 1 0.49913 0.575412 0.780606
245 2 0.487944 0.612564 0.817418
246 2 0.462737 0.586264 0.742922
247 1 0.192391 0.655195 0.606477
248 2 0.229922 0.669913 0.570998
249 2 0.190208 0.600244 0.603266
250 1 0.462597 0.688291 0.506091
251 2 0.489808 0.672637 0.54875
252 2 0.409137 0.682821 0.518443
109 1 0.689848 0.686794 0.503381
135 2 0.728186 0.857558 0.516295
206 2 0.677142 0.50125 0.830276
253 1 0.689849 0.686793 0.878772
254 2 0.686546 0.739645 0.864449
255 2 0.676318 0.658496 0.836146
256 1 0.771129 0.611789 0.674159
257 2 0.787322 0.585507 0.631207
258 2 0.777091 0.665239 0.662874
259 1 0.881895 0.803994 0.79181
260 2 0.864827 0.777013 0.834076
261 2 0.875234 0.857241 0.80359
262 1 0.617066 0.773198 0.699604
263 2 0.601223 0.732003 0.668547
264 2 0.573652 0.781708 0.730728
265 1 0.804368 0.881185 0.573775
266 2 0.789691 0.844727 0.610122
267 2 0.859563 0.883441 0.5768
268 1 0.772633 0.76934 0.682221
269 2 0.719548 0.772569 0.696534
270 2 0.801029 0.782766 0.724874
271 1 0.575735 0.88297 0.590069
272 2 0.613103 0.871835 0.553307
273 2 0.586573 0.846727 0.627764
274 1 0.655048 0.577998 0.7694
275 2 0.681514 0.594128 0.726488
276 2 0.60139 0.583995 0.758058
277 1 0.685917 0.841877 0.861711
278 2 0.677122 0.884807 0.830284
279 2 0.728185 0.857569 0.891728
280 1 0.884377 0.575412 0.780606
281 2 0.873191 0.612564 0.817418
282 2 0.847984 0.586264 0.742922
283 1 0.57758 0.655195 0.606477
284 2 0.615111 0.669913 0.570998
285 2 0.575397 0.600244 0.603266
286 1 0.847844 0.688291 0.506091
287 2 0.875055 0.672637 0.54875
288 2 0.794384 0.682821 0.518443
ITEM: TIMESTEP
500
ITEM: NUMBER OF ATOMS
288
ITEM: BOX BOUNDS pp pp pp
-1.8450657143351767e+00 1.3883065714335174e+01
-1.8777078037594279e+00 1.3917707803759434e+01
-1.3689290483325340e+00 1.5423929048332521e+01
ITEM: ATOMS id type xs ys zs
111 2 0.690123 0.648449 0.479147
3 2 0.232957 0.265424 0.456523
4 1 0.336979 0.0613912 0.335063
5 2 0.360607 0.0108968 0.312666
6 2 0.342528 0.102855 0.293843
7 1 0.502791 0.381939 0.359849
8 2 0.488178 0.342699 0.401051
9 2 0.488391 0.436191 0.381324
10 1 0.217248 0.340109 0.233136
11 2 0.208629 0.304695 0.187613
12 2 0.214955 0.302172 0.277512
13 1 0.43936 0.521895 0.1144
14 2 0.431108 0.466635 0.13644
15 2 0.498015 0.53424 0.124111
16 1 0.389832 0.354362 0.22151
17 2 0.330793 0.351371 0.234986
18 2 0.417858 0.365504 0.270991
19 1 0.174146 0.508854 0.207847
20 2 0.22687 0.524929 0.183763
21 2 0.182091 0.450899 0.222685
22 1 0.191012 0.196927 0.33677
23 2 0.225903 0.153917 0.360063
24 2 0.145359 0.166567 0.312208
25 1 0.219922 0.484187 0.490493
28 1 0.531009 0.163663 0.349826
29 2 0.506803 0.187547 0.397033
30 2 0.48376 0.139179 0.322287
31 1 0.230236 0.226333 0.103673
32 2 0.286453 0.220635 0.124793
33 2 0.236338 0.214558 0.0480684
34 1 0.399976 0.173441 0.204666
35 2 0.413637 0.23183 0.21286
36 2 0.453527 0.146914 0.194228
144 2 0.839831 0.00600557 0.169512
142 1 0.796559 0.968866 0.189114
40 1 0.763708 0.191932 0.189654
41 2 0.78045 0.191122 0.134875
42 2 0.781529 0.246249 0.208583
43 1 0.805503 0.405078 0.399573
44 2 0.822104 0.355106 0.427786
45 2 0.839165 0.44924 0.422546
46 1 0.616444 0.408821 0.207307
47 2 0.600262 0.351388 0.197355
48 2 0.588708 0.423007 0.256239
49 1 0.84297 0.52596 0.179309
50 2 0.81862 0.471794 0.190765
51 2 0.897304 0.513302 0.1566
52 1 0.78774 0.370388 0.238581
53 2 0.731726 0.37919 0.217936
54 2 0.781464 0.37588 0.295025
55 1 0.604288 0.58236 0.152729
56 2 0.660135 0.599191 0.136584
57 2 0.610487 0.524504 0.168604
58 1 0.73047 0.168485 0.383105
59 2 0.73515 0.119368 0.350036
60 2 0.68992 0.203663 0.356461
214 1 0.863699 0.270773 0.48924
64 1 0.945312 0.148038 0.339743
65 2 0.905809 0.158905 0.381861
66 2 0.932395 0.189782 0.300258
67 1 0.590197 0.23992 0.218857
68 2 0.640088 0.215049 0.196133
69 2 0.580579 0.208401 0.26668
70 1 0.952899 0.284208 0.238215
71 2 0.981928 0.307454 0.283269
72 2 0.903159 0.318575 0.232571
26 2 0.224441 0.526982 0.450381
74 2 0.267913 0.787643 0.465662
75 2 0.276505 0.695303 0.442989
76 1 0.377804 0.638183 0.254259
77 2 0.389331 0.629338 0.198929
78 2 0.355847 0.694609 0.256979
79 1 0.464032 0.806066 0.423564
80 2 0.470409 0.758239 0.458028
81 2 0.444617 0.850549 0.457708
82 1 0.144643 0.797858 0.369832
83 2 0.133153 0.759177 0.327316
84 2 0.102773 0.7849 0.409338
85 1 0.381749 0.932302 0.222541
86 2 0.365802 0.883952 0.253458
87 2 0.442222 0.92807 0.217714
88 1 0.323484 0.800265 0.313412
89 2 0.270187 0.813227 0.338044
90 2 0.363569 0.80062 0.356278
91 1 0.417072 0.896771 0.0196542
92 2 0.386779 0.912162 0.0669049
93 2 0.434258 0.839441 0.0286111
94 1 0.261228 0.609004 0.380632
95 2 0.298009 0.606471 0.335303
96 2 0.205629 0.616654 0.358639
178 1 0.430866 0.251218 0.469127
98 2 0.275522 0.958755 0.432598
100 1 0.475746 0.55104 0.401932
101 2 0.461001 0.587687 0.445155
102 2 0.457186 0.580632 0.355346
103 1 0.104215 0.640272 0.312107
104 2 0.0490128 0.628917 0.333554
105 2 0.111225 0.5992 0.270736
106 1 0.410328 0.693033 0.0915347
107 2 0.439822 0.713491 0.137511
108 2 0.427348 0.635063 0.0870711
62 2 0.695954 0.408477 0.476293
143 2 0.826142 0.930211 0.223136
140 2 0.574103 0.796667 0.171212
112 1 0.780763 0.619584 0.304206
113 2 0.806785 0.595503 0.257944
114 2 0.781809 0.679327 0.294806
115 1 0.934128 0.810167 0.425412
116 2 0.914609 0.784104 0.473495
117 2 0.959825 0.861994 0.442485
118 1 0.615683 0.822677 0.336907
119 2 0.599588 0.799125 0.286616
120 2 0.57 0.808106 0.371958
121 1 0.660323 0.869683 0.117637
122 2 0.707691 0.895925 0.143517
123 2 0.678699 0.8617 0.0638364
124 1 0.793476 0.796953 0.320826
125 2 0.74034 0.795308 0.348539
126 2 0.835401 0.799043 0.362073
127 1 0.577923 0.97029 0.241736
128 2 0.619774 0.968664 0.200404
129 2 0.605367 0.945005 0.28669
130 1 0.657829 0.547722 0.415394
131 2 0.683237 0.575762 0.370838
132 2 0.597944 0.553565 0.406964
141 2 0.571419 0.703909 0.193663
134 2 0.659135 0.879121 0.452079
136 1 0.866228 0.56669 0.449694
137 2 0.884937 0.616347 0.477236
138 2 0.845611 0.587217 0.399678
139 1 0.538288 0.754703 0.194959
180 2 0.376624 0.278322 0.473162
97 1 0.275875 0.918761 0.475399
73 1 0.281327 0.733182 0.487231
2 2 0.23217 0.358088 0.479441
1 1 0.255895 0.30459 0.494317
39 2 0.679437 0.192732 0.491417
27 2 0.275137 0.48218 0.514352
110 2 0.678342 0.741069 0.499425
145 1 0.427936 0.335707 0.829286
146 2 0.396293 0.383934 0.846923
147 2 0.386017 0.292597 0.821448
148 1 0.410111 0.164784 0.652793
149 2 0.358815 0.132435 0.656411
150 2 0.391524 0.222469 0.652928
151 1 0.533311 0.451905 0.755919
152 2 0.517048 0.408498 0.792636
153 2 0.52674 0.503495 0.785152
154 1 0.223001 0.396046 0.725534
155 2 0.196821 0.346339 0.74698
156 2 0.24345 0.426121 0.771143
157 1 0.375078 0.485079 0.558606
158 2 0.378625 0.432742 0.587113
159 2 0.431491 0.50767 0.560583
160 1 0.377462 0.339167 0.66982
161 2 0.319992 0.351872 0.684212
162 2 0.407121 0.336157 0.719494
163 1 0.138766 0.514795 0.637799
164 2 0.160994 0.497653 0.587264
165 2 0.163117 0.475831 0.674999
166 1 0.292505 0.221885 0.817526
167 2 0.261571 0.211063 0.769524
168 2 0.283778 0.172351 0.849299
169 1 0.320975 0.481948 0.837952
171 2 0.344644 0.502958 0.789318
172 1 0.598092 0.250124 0.849565
173 2 0.545209 0.275754 0.864151
174 2 0.591896 0.237157 0.794205
175 1 0.220545 0.193437 0.673265
176 2 0.229843 0.215017 0.620735
177 2 0.181353 0.147735 0.666067
61 1 0.678856 0.390676 0.528355
179 2 0.440323 0.227348 0.520747
135 2 0.719276 0.887222 0.52202
37 1 0.676441 0.215708 0.544069
288 2 0.811866 0.706076 0.543247
181 1 0.874052 0.195505 0.914116
182 2 0.865762 0.252768 0.89721
183 2 0.82081 0.168335 0.903756
184 1 0.783822 0.165157 0.680489
185 2 0.753696 0.155515 0.631819
186 2 0.763304 0.218699 0.698972
187 1 0.912425 0.425685 0.791278
188 2 0.859227 0.401153 0.806514
189 2 0.909945 0.482434 0.811091
190 1 0.721721 0.325101 0.731203
191 2 0.662121 0.322385 0.720037
192 2 0.725018 0.348666 0.783609
193 1 0.789349 0.509692 0.590146
194 2 0.832012 0.467226 0.597565
195 2 0.804881 0.53723 0.541519
196 1 0.867952 0.365454 0.633298
197 2 0.811073 0.350747 0.648057
198 2 0.895378 0.378774 0.682597
199 1 0.540709 0.501505 0.592146
200 2 0.583304 0.474045 0.560705
201 2 0.536185 0.467376 0.639036
202 1 0.720801 0.122113 0.839825
203 2 0.740215 0.127751 0.786081
204 2 0.682128 0.168255 0.847002
205 1 0.73617 0.391561 0.876827
207 2 0.692693 0.35817 0.901375
208 1 0.956492 0.171405 0.742999
209 2 0.942347 0.16166 0.797659
210 2 0.902757 0.175465 0.716548
211 1 0.567509 0.238732 0.689265
212 2 0.598671 0.228818 0.64122
213 2 0.511838 0.217151 0.678476
99 2 0.329618 0.927108 0.500931
215 2 0.880035 0.299537 0.537
63 2 0.709271 0.427187 0.563799
287 2 0.879399 0.731151 0.602959
38 2 0.67634 0.275732 0.536352
170 2 0.318072 0.530449 0.87199
217 1 0.311302 0.644796 0.900124
218 2 0.305815 0.661256 0.954723
219 2 0.255728 0.652783 0.878183
220 1 0.369015 0.587263 0.687724
221 2 0.371957 0.560022 0.6369
222 2 0.371791 0.646444 0.67582
223 1 0.371974 0.800602 0.821133
224 2 0.348116 0.766065 0.862274
225 2 0.343656 0.853913 0.826534
226 1 0.176785 0.759146 0.678772
227 2 0.152523 0.738131 0.630398
228 2 0.178387 0.711046 0.713384
229 1 0.422713 0.903933 0.571762
230 2 0.401522 0.860134 0.605762
231 2 0.472472 0.924377 0.598322
232 1 0.358295 0.760085 0.660823
233 2 0.298139 0.762441 0.652581
234 2 0.366079 0.778862 0.714508
235 1 0.188293 0.931322 0.663314
236 2 0.193756 0.926793 0.60672
237 2 0.178672 0.874501 0.680908
238 1 0.147254 0.633685 0.783608
239 2 0.142966 0.595011 0.73993
240 2 0.0897436 0.649409 0.794882
241 1 0.315808 0.00947976 0.758587
242 2 0.274925 0.992897 0.719374
243 2 0.36934 0.992415 0.736775
244 1 0.49468 0.600231 0.831698
245 2 0.455953 0.614993 0.873396
246 2 0.462561 0.607366 0.78377
247 1 0.134038 0.672625 0.546282
248 2 0.190297 0.686784 0.529155
249 2 0.140433 0.619877 0.573662
250 1 0.460203 0.673862 0.523147
251 2 0.491291 0.669973 0.571994
252 2 0.405091 0.693547 0.538637
109 1 0.696978 0.688393 0.521507
286 1 0.872159 0.709425 0.550199
206 2 0.709246 0.444568 0.865624
253 1 0.690918 0.734297 0.921085
254 2 0.638654 0.75915 0.903632
255 2 0.689121 0.677615 0.901041
256 1 0.787559 0.612194 0.742737
257 2 0.794629 0.585108 0.692198
258 2 0.799025 0.67069 0.732517
259 1 0.865432 0.761026 0.861734
260 2 0.885499 0.704506 0.869955
261 2 0.811926 0.762922 0.8888
262 1 0.649743 0.803894 0.728468
263 2 0.614095 0.760724 0.706478
264 2 0.620931 0.821525 0.775838
265 1 0.814257 0.929134 0.589169
266 2 0.832135 0.886865 0.626399
267 2 0.813638 0.980586 0.619245
268 1 0.82465 0.785225 0.705996
269 2 0.765768 0.794068 0.717686
270 2 0.853249 0.796534 0.755154
271 1 0.59544 0.939117 0.623732
272 2 0.615187 0.914915 0.574876
273 2 0.624924 0.908366 0.664327
274 1 0.67104 0.563625 0.859302
275 2 0.700531 0.581479 0.812374
276 2 0.613881 0.582676 0.851554
277 1 0.549176 0.837204 0.868786
278 2 0.547015 0.893783 0.889056
279 2 0.492808 0.826467 0.849866
280 1 0.910074 0.586675 0.870682
281 2 0.895015 0.553674 0.916341
282 2 0.861342 0.583464 0.836699
283 1 0.587433 0.657272 0.646922
284 2 0.633886 0.663857 0.610647
285 2 0.569142 0.600016 0.639622
133 1 0.6717 0.855253 0.503115
216 2 0.813009 0.240821 0.503363
ITEM: TIMESTEP
1000
ITEM: NUMBER OF ATOMS
288
ITEM: BOX BOUNDS pp pp pp
-1.1325008156786254e+00 1.3170500815678619e+01
-1.1620945872337165e+00 1.3202094587233717e+01
-6.0812657907089740e-01 1.4663126579070884e+01
ITEM: ATOMS id type xs ys zs
111 2 0.675646 0.685724 0.48321
3 2 0.190291 0.26968 0.416246
4 1 0.239672 0.0847158 0.2379
5 2 0.23169 0.0325634 0.199616
6 2 0.282424 0.124651 0.207675
7 1 0.506171 0.373077 0.320901
8 2 0.481314 0.324531 0.356969
9 2 0.508969 0.426238 0.358593
10 1 0.0651921 0.28208 0.142591
11 2 0.0944005 0.233476 0.109583
12 2 0.0676271 0.260863 0.201958
13 1 0.470775 0.510216 0.0753582
14 2 0.426403 0.47224 0.10577
15 2 0.526687 0.505679 0.109525
16 1 0.360871 0.394332 0.198979
17 2 0.308843 0.408395 0.236105
18 2 0.412967 0.389646 0.238066
19 1 0.00907168 0.525801 0.102252
20 2 0.0408515 0.542867 0.049486
21 2 0.01622 0.459656 0.105765
22 1 0.126039 0.241986 0.308486
23 2 0.169016 0.200602 0.280335
24 2 0.0798465 0.201926 0.333712
179 2 0.457135 0.237556 0.479288
28 1 0.525246 0.121141 0.328906
29 2 0.469908 0.138636 0.360065
30 2 0.524934 0.0545198 0.329908
31 1 0.220224 0.144987 0.0292565
32 2 0.266308 0.170758 0.067694
25 1 0.2368 0.465946 0.487763
34 1 0.347178 0.206175 0.151907
35 2 0.351818 0.268492 0.173663
36 2 0.410623 0.185876 0.146216
144 2 0.67603 0.963934 0.223844
142 1 0.623262 0.925684 0.210024
40 1 0.740016 0.111131 0.236597
41 2 0.805357 0.114883 0.223544
42 2 0.721242 0.174352 0.245683
43 1 0.948463 0.428085 0.389957
44 2 0.981272 0.385665 0.427263
45 2 0.957633 0.487747 0.416505
46 1 0.664278 0.297206 0.246365
47 2 0.630031 0.26371 0.202702
48 2 0.617784 0.317246 0.287308
49 1 0.824698 0.556294 0.166965
50 2 0.841115 0.495684 0.187974
51 2 0.876423 0.574489 0.131075
52 1 0.851217 0.387371 0.247424
53 2 0.794227 0.358028 0.265232
54 2 0.888284 0.389687 0.299558
55 1 0.639914 0.486991 0.177022
56 2 0.702518 0.506762 0.165018
57 2 0.645012 0.421365 0.186758
58 1 0.699984 0.121475 0.404253
59 2 0.730824 0.106068 0.350554
60 2 0.638243 0.139401 0.386937
116 2 0.965628 0.861946 0.457162
64 1 0.0104592 0.118315 0.384887
65 2 0.0099273 0.16904 0.425523
66 2 0.971017 0.138469 0.337941
67 1 0.545373 0.160184 0.15411
68 2 0.58847 0.111202 0.140845
69 2 0.530909 0.15172 0.214781
70 1 0.921508 0.20422 0.239676
71 2 0.965617 0.199923 0.19272
72 2 0.890717 0.262578 0.230552
26 2 0.243633 0.504697 0.437182
74 2 0.211019 0.810833 0.42981
75 2 0.212969 0.706136 0.418665
76 1 0.362602 0.669257 0.240167
77 2 0.388517 0.659255 0.183155
78 2 0.347879 0.73424 0.241483
79 1 0.403195 0.808346 0.380207
80 2 0.394935 0.755371 0.417425
81 2 0.385488 0.860318 0.415749
82 1 0.0422552 0.809163 0.251089
83 2 0.0280462 0.744698 0.259697
84 2 0.018628 0.839337 0.302399
85 1 0.273317 0.953299 0.110126
86 2 0.234057 0.912863 0.14373
87 2 0.333786 0.947256 0.136358
88 1 0.229434 0.823925 0.232897
89 2 0.162805 0.818772 0.236073
90 2 0.245947 0.862274 0.281761
2 2 0.2376 0.347793 0.465883
92 2 0.339397 0.900203 0.0145521
93 2 0.41005 0.821759 0.0129968
94 1 0.223463 0.602248 0.35407
95 2 0.264489 0.608639 0.304924
96 2 0.162256 0.599041 0.328919
178 1 0.420695 0.2482 0.427684
98 2 0.21927 0.989662 0.355834
100 1 0.477664 0.560514 0.366731
101 2 0.450216 0.592315 0.415438
102 2 0.455699 0.593748 0.316456
103 1 0.0337447 0.622385 0.268092
104 2 0.98243 0.599157 0.301867
105 2 0.0263462 0.594012 0.21181
106 1 0.467768 0.709974 0.0866269
107 2 0.531733 0.727057 0.0956105
108 2 0.470624 0.656008 0.0499647
62 2 0.71356 0.440845 0.476834
143 2 0.612348 0.890244 0.262103
140 2 0.640484 0.679869 0.211124
112 1 0.810898 0.680481 0.340153
113 2 0.804103 0.654876 0.282643
114 2 0.799302 0.745638 0.332813
115 1 0.976509 0.901971 0.408103
99 2 0.263568 0.962779 0.442233
117 2 0.997206 0.959319 0.43345
118 1 0.588949 0.822095 0.359273
119 2 0.603163 0.761836 0.336075
120 2 0.52297 0.820629 0.36963
121 1 0.663939 0.748353 0.112858
122 2 0.661821 0.81378 0.124553
123 2 0.690326 0.743791 0.0554229
124 1 0.791382 0.878745 0.349477
125 2 0.76034 0.897752 0.402041
126 2 0.854555 0.899246 0.356909
127 1 0.422302 0.944453 0.223287
128 2 0.485626 0.932586 0.206382
129 2 0.41116 0.902602 0.270926
130 1 0.67098 0.556643 0.43111
131 2 0.71701 0.591426 0.399505
132 2 0.613684 0.568663 0.400773
141 2 0.640874 0.587297 0.258491
134 2 0.710697 0.0077644 0.486922
136 1 0.947018 0.61226 0.450736
73 1 0.211585 0.753891 0.462353
138 2 0.898861 0.643648 0.418768
139 1 0.624073 0.651345 0.265638
180 2 0.357253 0.242227 0.446809
97 1 0.246277 0.93804 0.386339
214 1 0.999586 0.285117 0.496266
39 2 0.770774 0.178697 0.499964
1 1 0.233987 0.281361 0.462423
110 2 0.63656 0.77802 0.452409
216 2 0.935003 0.267878 0.49874
33 2 0.24171 0.0830792 0.0177612
137 2 0.975757 0.660073 0.485099
218 2 0.196513 0.670308 0.037783
27 2 0.293884 0.474132 0.519546
285 2 0.567009 0.625277 0.630556
145 1 0.452061 0.338085 0.907225
146 2 0.40813 0.387826 0.900444
147 2 0.414742 0.282801 0.90576
148 1 0.476164 0.227484 0.606417
149 2 0.450301 0.169431 0.625376
150 2 0.438011 0.273698 0.634014
151 1 0.55361 0.464143 0.797715
152 2 0.523355 0.411041 0.822819
153 2 0.519133 0.516285 0.819619
154 1 0.147545 0.466024 0.792723
155 2 0.121765 0.405394 0.802346
156 2 0.204053 0.466581 0.826288
157 1 0.399845 0.447621 0.572529
158 2 0.397009 0.400573 0.616829
159 2 0.462963 0.469646 0.574538
160 1 0.351018 0.328749 0.718259
161 2 0.287589 0.328408 0.698294
162 2 0.352862 0.282286 0.763148
163 1 0.137419 0.544817 0.635672
164 2 0.181584 0.518746 0.595478
165 2 0.15075 0.514832 0.69023
166 1 0.37324 0.1816 0.852155
167 2 0.321792 0.157257 0.885047
168 2 0.398371 0.128758 0.822096
169 1 0.295171 0.490654 0.889924
171 2 0.311426 0.519977 0.835744
172 1 0.630188 0.231172 0.893446
173 2 0.569358 0.258388 0.898608
174 2 0.648248 0.243009 0.834134
175 1 0.184946 0.306425 0.631135
176 2 0.196856 0.291991 0.570975
177 2 0.159839 0.250156 0.655088
61 1 0.726049 0.408775 0.530511
109 1 0.659752 0.746807 0.503342
91 1 0.378781 0.865455 0.975835
37 1 0.817173 0.222167 0.519137
288 2 0.788682 0.782794 0.523149
181 1 0.924491 0.130112 0.890751
182 2 0.954052 0.0705849 0.895885
183 2 0.868682 0.124666 0.924949
184 1 0.94159 0.17627 0.654275
185 2 0.897852 0.177236 0.606851
186 2 0.904174 0.185646 0.705481
187 1 0.025602 0.308993 0.82955
188 2 -0.00946824 0.256673 0.850218
189 2 -0.0110535 0.361946 0.845937
190 1 0.803434 0.309263 0.793547
191 2 0.751295 0.287249 0.760163
192 2 0.781769 0.309065 0.852844
193 1 0.8693 0.530068 0.597702
194 2 0.918207 0.488583 0.615226
195 2 0.891264 0.557033 0.544209
196 1 0.991828 0.393553 0.658575
197 2 0.997596 0.351272 0.706712
198 2 0.0508624 0.424824 0.656213
199 1 0.573079 0.506305 0.621565
200 2 0.624915 0.479457 0.591017
201 2 0.584567 0.492205 0.681866
202 1 0.747183 0.0848092 0.96316
203 2 0.702341 0.0353863 0.961456
204 2 0.713191 0.138641 0.944439
205 1 0.751943 0.366343 0.967141
207 2 0.705842 0.318397 0.961699
208 1 0.108021 0.159589 0.734202
209 2 0.101283 0.208433 0.776361
210 2 0.0485054 0.156463 0.705703
211 1 0.641859 0.265731 0.701957
212 2 0.662498 0.310202 0.659476
213 2 0.582901 0.244334 0.680194
284 2 0.59636 0.719126 0.594815
215 2 0.0144965 0.303794 0.554784
63 2 0.785941 0.431426 0.548607
287 2 0.849146 0.815635 0.598411
135 2 0.768841 0.955024 0.553247
170 2 0.265433 0.538676 0.923268
217 1 0.219346 0.657674 0.980082
250 1 0.417548 0.673339 0.511434
219 2 0.165583 0.663655 0.943194
220 1 0.358379 0.558504 0.731266
221 2 0.360773 0.521105 0.679444
222 2 0.371882 0.620249 0.711392
223 1 0.29217 0.779877 0.843187
224 2 0.236448 0.750724 0.864456
225 2 0.311125 0.820437 0.889633
226 1 0.142954 0.824671 0.688683
227 2 0.0957652 0.80897 0.646772
228 2 0.132598 0.782642 0.736338
229 1 0.370012 0.893032 0.545108
230 2 0.345755 0.838269 0.572649
231 2 0.436043 0.889883 0.554826
232 1 0.31829 0.750024 0.667301
233 2 0.255392 0.76835 0.654636
234 2 0.330728 0.775821 0.7239
235 1 0.253577 0.985602 0.726135
236 2 0.20495 0.0215075 0.699432
237 2 0.239477 0.922599 0.710588
238 1 0.0894384 0.687267 0.84745
239 2 0.0810964 0.623928 0.82963
240 2 0.0281917 0.713881 0.844173
241 1 0.425238 0.0705368 0.685303
242 2 0.365153 0.0412416 0.686596
243 2 0.468382 0.0203798 0.676976
244 1 0.46335 0.620916 0.92518
245 2 0.473122 0.57156 0.966277
246 2 0.396847 0.624916 0.919338
247 1 0.055095 0.713246 0.562001
248 2 0.108031 0.728911 0.526608
249 2 0.0719063 0.65567 0.589336
283 1 0.56627 0.690391 0.643838
251 2 0.472769 0.685137 0.545046
252 2 0.367815 0.674843 0.553342
282 2 0.877622 0.434863 0.836206
286 1 0.852524 0.789654 0.540785
206 2 0.722663 0.420553 0.943143
281 2 0.882631 0.455081 0.933375
254 2 0.682479 0.756809 0.903292
255 2 0.704738 0.660433 0.937542
256 1 0.782776 0.62037 0.74166
257 2 0.813588 0.593913 0.691902
258 2 0.749611 0.672863 0.718742
259 1 0.89602 0.731781 0.845906
260 2 0.877193 0.686976 0.803001
261 2 0.845953 0.732482 0.887483
262 1 0.629353 0.821479 0.758295
263 2 0.602766 0.777717 0.718127
264 2 0.591974 0.815786 0.810003
265 1 0.888038 0.994027 0.598715
266 2 0.89051 0.9544 0.649047
267 2 0.922382 0.0483537 0.615512
268 1 0.82184 0.85657 0.718818
269 2 0.762845 0.863521 0.747665
270 2 0.859975 0.823805 0.760079
271 1 0.548216 0.927794 0.630052
272 2 0.602687 0.936406 0.594563
273 2 0.571175 0.899798 0.682703
274 1 0.69415 0.536696 0.890779
275 2 0.738711 0.556446 0.847873
276 2 0.644859 0.508823 0.857473
277 1 0.545119 0.805681 0.906313
278 2 0.489199 0.841899 0.911248
279 2 0.525298 0.743005 0.916699
280 1 0.919458 0.455634 0.881049
38 2 0.783598 0.279103 0.527566
253 1 0.727046 0.723251 0.937778
133 1 0.715578 0.948807 0.515762
ITEM: TIMESTEP
1500
ITEM: NUMBER OF ATOMS
288
ITEM: BOX BOUNDS pp pp pp
-7.5148526516117897e-01 1.2789485265161151e+01
-7.7944907078157577e-01 1.2819449070781577e+01
-2.0131791896528917e-01 1.4256317918965273e+01
ITEM: ATOMS id type xs ys zs
111 2 0.63901 0.620161 0.497178
3 2 0.226493 0.3275 0.370232
4 1 0.230356 0.164328 0.270371
5 2 0.161749 0.148954 0.277064
6 2 0.255255 0.114832 0.229486
7 1 0.476254 0.384678 0.328992
8 2 0.446721 0.338867 0.370957
9 2 0.478414 0.445252 0.362643
10 1 0.107661 0.271384 0.0615492
11 2 0.153299 0.218579 0.0521245
12 2 0.130487 0.303378 0.116506
13 1 0.512024 0.529253 0.0781858
14 2 0.458545 0.492401 0.104119
15 2 0.562118 0.481282 0.0661204
16 1 0.341658 0.489209 0.221539
17 2 0.286296 0.448641 0.206106
18 2 0.385165 0.446594 0.254941
19 1 0.0737298 0.531304 0.13577
219 2 0.232072 0.619196 0.0457267
21 2 0.0947545 0.464113 0.134859
22 1 0.182267 0.350978 0.231729
23 2 0.197156 0.283396 0.243876
24 2 0.132067 0.367329 0.275726
218 2 0.305401 0.561073 0.102803
28 1 0.548008 0.13587 0.329738
29 2 0.499685 0.156182 0.374117
30 2 0.512874 0.0930864 0.288743
20 2 0.0818558 0.553266 0.073334
32 2 0.277019 0.107806 0.061186
135 2 0.71169 0.990374 0.456846
34 1 0.401549 0.191533 0.10451
35 2 0.411235 0.246313 0.0639436