ITEM: TIMESTEP
0
ITEM: NUMBER OF ATOMS
96
ITEM: BOX BOUNDS pp pp pp
-1.2000000000000000e-01 1.0385999999999999e+01
9.9359999999999999e+00 2.0861999999999998e+01
-3.5299999999999998e-01 1.0619000000000000e+01
ITEM: ATOMS id type xs ys zs
1 1 0.343899 0.373147 0.934652
2 2 0.292024 0.43456 0.978764
3 2 0.280982 0.312466 0.908221
4 1 0.511422 0.730826 0.915421
5 2 0.491719 0.70346 2.02374e-17
6 2 0.444698 0.791781 0.895097
7 1 0.630592 0.493959 0.30113
8 2 0.706263 0.529379 0.261484
9 2 0.55949 0.546129 0.271236
10 1 0.35475 0.917262 0.841415
11 2 0.347611 0.968058 0.913872
12 2 0.421093 0.955702 0.787824
13 1 0.389968 0.782995 0.390357
14 2 0.383305 0.855391 0.333121
15 2 0.4664 0.796906 0.439027
16 1 0.0503522 0.469705 0.305505
17 2 0.0864268 0.530203 0.363926
18 2 0.032648 0.394014 0.354083
19 1 0.78755 0.0803588 0.405396
20 2 0.839425 0.0388065 0.342144
21 2 0.841709 0.148728 0.433558
22 1 0.445365 0.636006 0.201878
23 2 0.360841 0.601318 0.180733
24 2 0.42747 0.691104 0.272512
25 1 0.167523 0.626853 0.466825
26 2 0.219398 0.56544 0.510937
27 2 0.23044 0.687534 0.440394
28 1 0 0.269174 0.447594
29 2 0.019703 0.29654 0.532173
30 2 0.0667238 0.208219 0.427269
31 1 0.857986 0.506041 0.768957
32 2 0.782315 0.470621 0.729311
33 2 0.929088 0.453871 0.739063
34 1 0.156672 0.0827384 0.373587
35 2 0.163811 0.0319422 0.446044
36 2 0.0903293 0.044298 0.319996
37 1 0.121454 0.217005 0.858184
38 2 0.128117 0.144609 0.800948
39 2 0.0450219 0.203094 0.906854
40 1 0.46107 0.530295 0.773332
41 2 0.424995 0.469797 0.831754
42 2 0.478774 0.605986 0.82191
43 1 0.701028 0.919641 0.873223
44 2 0.649153 0.961193 0.809971
45 2 0.646868 0.851272 0.901385
46 1 0.0660575 0.363994 0.669705
47 2 0.150581 0.398682 0.64856
48 2 0.083952 0.308896 0.740339
49 1 0.656101 0.842943 0.533175
50 2 0.707976 0.904357 0.489063
51 2 0.719018 0.782262 0.559606
52 1 0.488578 0.261029 0.552406
53 2 0.508281 0.233663 0.467827
54 2 0.555302 0.321984 0.572731
55 1 0.369408 0.0241625 0.231043
56 2 0.293737 0.0595826 0.270689
57 2 0.44051 0.0763317 0.260937
58 1 0.64525 0.447465 0.626413
59 2 0.652389 0.498261 0.553956
60 2 0.578907 0.485905 0.680004
61 1 0.610032 0.313198 0.141816
62 2 0.616695 0.385594 0.199052
63 2 0.5336 0.32711 0.0931462
64 1 0.949648 0.939502 0.226668
65 2 0.913573 0 0.168246
66 2 0.967352 0.863811 0.17809
67 1 0.21245 0.550156 0.126777
68 2 0.160575 0.508603 0.190029
69 2 0.158291 0.618525 0.0986147
70 1 0.554635 0.166209 0.330295
71 2 0.639159 0.131521 0.35144
72 2 0.57253 0.221307 0.259661
73 1 0.832477 0.157057 0.0653482
74 2 0.780602 0.0956434 0.0212359
75 2 0.76956 0.217738 0.0917791
76 1 7.39726e-17 0.738971 0.0845789
77 2 0.980297 0.766337 0
78 2 0.933276 0.678016 0.104903
79 1 0.142014 0.975837 0.69887
80 2 0.217685 0.940417 0.738516
81 2 0.0709119 0.923668 0.728764
82 1 0.843328 0.552535 0.158585
83 2 0.836189 0.501739 0.0861283
84 2 0.909671 0.514095 0.212176
85 1 0.878546 0.686802 0.609643
86 2 0.871883 0.614406 0.666879
87 2 0.954978 0.67289 0.560973
88 1 0.53893 0.0604979 0.694495
89 2 0.575005 0 0.636074
90 2 0.521226 0.136189 0.645917
91 1 0.298972 0.449844 0.594604
92 2 0.350847 0.491397 0.657856
93 2 0.353132 0.381475 0.566442
94 1 0.933943 0.833791 0.798122
95 2 0.849419 0.868479 0.819267
96 2 0.916048 0.778693 0.727488
ITEM: TIMESTEP
50
ITEM: NUMBER OF ATOMS
96
ITEM: BOX BOUNDS pp pp pp
-9.3734999999999929e-02 1.0359735000000018e+01
9.9633149999999944e+00 2.0834685000000004e+01
-3.2556999999999947e-01 1.0591569999999994e+01
ITEM: ATOMS id type xs ys zs
1 1 0.343896 0.373151 0.934653
2 2 0.292026 0.434555 0.978763
3 2 0.280983 0.312467 0.908222
4 1 0.511421 0.730824 0.915427
5 2 0.49172 0.703463 -5.98358e-06
6 2 0.444699 0.79178 0.895097
7 1 0.630591 0.49396 0.301129
8 2 0.706263 0.529379 0.261483
9 2 0.559492 0.546128 0.271235
10 1 0.354754 0.91726 0.84141
11 2 0.347613 0.968059 0.91387
12 2 0.421087 0.955703 0.787829
13 1 0.389966 0.783001 0.39035
14 2 0.383307 0.855385 0.333128
15 2 0.4664 0.796908 0.439026
16 1 0.0503507 0.469704 0.305504
17 2 0.0864262 0.5302 0.363927
18 2 0.0326494 0.394019 0.354083
19 1 0.787553 0.0803581 0.405393
20 2 0.839423 0.0388086 0.342148
21 2 0.841709 0.148725 0.433556
22 1 0.445364 0.636006 0.201878
23 2 0.360843 0.601319 0.180734
24 2 0.427469 0.691102 0.27251
25 1 0.167524 0.626853 0.466824
26 2 0.219398 0.565442 0.510936
27 2 0.23044 0.687533 0.440395
28 1 -2.94901e-07 0.269174 0.447595
29 2 0.0197039 0.296539 0.53217
30 2 0.066723 0.20822 0.427271
31 1 0.85799 0.506037 0.768954
32 2 0.782315 0.470621 0.72931
33 2 0.929085 0.453874 0.739064
34 1 0.156667 0.0827389 0.373581
35 2 0.163809 0.0319406 0.446044
36 2 0.0903349 0.044298 0.320003
37 1 0.121455 0.216999 0.858177
38 2 0.128115 0.144615 0.800955
39 2 0.0450232 0.203092 0.906852
40 1 0.461069 0.530297 0.773332
41 2 0.424996 0.469799 0.831754
42 2 0.478773 0.605981 0.82191
43 1 0.701024 0.919642 0.87322
44 2 0.649156 0.961192 0.809976
45 2 0.646869 0.851274 0.901383
46 1 0.066057 0.363994 0.669707
47 2 0.15058 0.398681 0.648561
48 2 0.083953 0.308899 0.740337
49 1 0.656104 0.842948 0.533173
50 2 0.707974 0.904352 0.489066
51 2 0.719018 0.782264 0.559606
52 1 0.488577 0.261029 0.552405
53 2 0.508282 0.233664 0.46783
54 2 0.555301 0.321984 0.57273
55 1 0.369409 0.024163 0.231044
56 2 0.293739 0.0595817 0.27069
57 2 0.440507 0.07633 0.260937
58 1 0.645251 0.447463 0.626415
59 2 0.652387 0.498262 0.553956
60 2 0.578909 0.485905 0.680001
61 1 0.610033 0.313199 0.141817
62 2 0.616694 0.385591 0.19905
63 2 0.533601 0.327111 0.0931475
64 1 0.949646 0.939507 0.226665
65 2 0.913577 -5.9183e-06 0.168248
66 2 0.967351 0.863816 0.178091
67 1 0.21245 0.550157 0.126775
68 2 0.160575 0.508606 0.190028
69 2 0.158291 0.618522 0.0986175
70 1 0.554636 0.166209 0.330294
71 2 0.639158 0.131523 0.35144
72 2 0.572531 0.221306 0.259663
73 1 0.832472 0.157051 0.0653461
74 2 0.780605 0.0956489 0.0212383
75 2 0.76956 0.217736 0.0917784
76 1 -1.10907e-06 0.738974 0.0845731
77 2 0.980297 0.766334 5.91984e-06
78 2 0.933277 0.678016 0.104903
79 1 0.142011 0.975836 0.698872
80 2 0.217683 0.940418 0.738517
81 2 0.0709155 0.923671 0.728763
82 1 0.84333 0.552536 0.158589
83 2 0.83619 0.501738 0.0861299
84 2 0.909668 0.514096 0.212172
85 1 0.878544 0.686801 0.609644
86 2 0.871884 0.61441 0.666877
87 2 0.954978 0.672889 0.560975
88 1 0.538932 0.0604921 0.694493
89 2 0.575002 6.3417e-06 0.636075
90 2 0.521227 0.136184 0.645917
91 1 0.298971 0.449845 0.594604
92 2 0.350848 0.491394 0.657855
93 2 0.353132 0.381477 0.566444
94 1 0.933942 0.833791 0.798121
95 2 0.849421 0.868477 0.819267
96 2 0.916047 0.778695 0.727491
ITEM: TIMESTEP
100
ITEM: NUMBER OF ATOMS
96
ITEM: BOX BOUNDS pp pp pp
-6.7470000000000308e-02 1.0333470000000037e+01
9.9906299999999888e+00 2.0807370000000009e+01
-2.9813999999999896e-01 1.0564139999999988e+01
ITEM: ATOMS id type xs ys zs
1 1 0.343894 0.373157 0.934655
2 2 0.292028 0.434551 0.978763
3 2 0.280981 0.312467 0.908222
4 1 0.511421 0.73082 0.915433
5 2 0.491721 0.703467 -1.21394e-05
6 2 0.444697 0.791781 0.895098
7 1 0.630589 0.493959 0.301131
8 2 0.706264 0.52938 0.261481
9 2 0.559492 0.546129 0.271234
10 1 0.354759 0.917256 0.841403
11 2 0.347615 0.968063 0.913869
12 2 0.421081 0.955706 0.787835
13 1 0.389961 0.783007 0.39034
14 2 0.38331 0.855378 0.333137
15 2 0.466403 0.796911 0.439025
16 1 0.050348 0.469703 0.305501
17 2 0.0864262 0.530198 0.363929
18 2 0.0326509 0.394022 0.354085
19 1 0.787555 0.0803565 0.40539
20 2 0.839422 0.0388104 0.342153
21 2 0.841709 0.148723 0.433554
22 1 0.445366 0.636006 0.201878
23 2 0.360842 0.60132 0.180734
24 2 0.427467 0.6911 0.272508
25 1 0.167521 0.626852 0.466823
26 2 0.219399 0.565442 0.510936
27 2 0.230441 0.687533 0.440395
28 1 -3.30447e-06 0.269175 0.447594
29 2 0.0197058 0.296539 0.532169
30 2 0.0667237 0.208219 0.427272
31 1 0.857996 0.506035 0.768953
32 2 0.782313 0.47062 0.729309
33 2 0.929082 0.453876 0.739065
34 1 0.156662 0.0827419 0.373573
35 2 0.163807 0.031937 0.446045
36 2 0.0903411 0.0442969 0.32001
37 1 0.121459 0.216993 0.858168
38 2 0.128113 0.144621 0.800964
39 2 0.0450232 0.20309 0.906852
40 1 0.461069 0.530299 0.773329
41 2 0.424997 0.4698 0.831757
42 2 0.478772 0.605977 0.821911
43 1 0.701022 0.919644 0.873217
44 2 0.649159 0.96119 0.809981
45 2 0.646869 0.851275 0.901381
46 1 0.0660533 0.363993 0.669708
47 2 0.15058 0.398679 0.648561
48 2 0.083955 0.3089 0.740336
49 1 0.656104 0.842955 0.533171
50 2 0.707972 0.904348 0.489069
51 2 0.71902 0.782264 0.559606
52 1 0.488574 0.261028 0.552406
53 2 0.508284 0.233665 0.467831
54 2 0.555302 0.321984 0.572729
55 1 0.369411 0.0241611 0.231044
56 2 0.29374 0.0595812 0.270692
57 2 0.440504 0.076329 0.260939
58 1 0.645253 0.447459 0.626418
59 2 0.652385 0.498265 0.553955
60 2 0.57891 0.485905 0.679998
61 1 0.610036 0.313198 0.141819
62 2 0.616691 0.385588 0.199048
63 2 0.533601 0.327113 0.093148
64 1 0.949643 0.939515 0.226664
65 2 0.913581 -1.2649e-05 0.168249
66 2 0.96735 0.86382 0.178091
67 1 0.212452 0.550158 0.126771
68 2 0.160573 0.508608 0.190027
69 2 0.15829 0.618519 0.0986207
70 1 0.554634 0.166209 0.330293
71 2 0.639159 0.131524 0.35144
72 2 0.572533 0.221305 0.259664
73 1 0.83247 0.157043 0.0653437
74 2 0.780608 0.095655 0.0212406
75 2 0.769559 0.217736 0.091778
76 1 -1.74495e-07 0.738978 0.0845664
77 2 0.980298 0.76633 1.19843e-05
78 2 0.933277 0.678016 0.104902
79 1 0.142007 0.975836 0.698873
80 2 0.217683 0.940419 0.738518
81 2 0.0709186 0.923673 0.728763
82 1 0.843331 0.552538 0.158595
83 2 0.836193 0.501735 0.0861302
84 2 0.909666 0.514096 0.212167
85 1 0.878541 0.686801 0.609646
86 2 0.871887 0.614413 0.666875
87 2 0.954979 0.672887 0.560976
88 1 0.538934 0.0604834 0.694493
89 2 0.574998 1.36737e-05 0.636075
90 2 0.521228 0.13618 0.645917
91 1 0.298968 0.449846 0.594603
92 2 0.350849 0.491392 0.657855
93 2 0.353133 0.381477 0.566446
94 1 0.933945 0.833793 0.798121
95 2 0.849421 0.868476 0.819266
96 2 0.916045 0.778696 0.727493
ITEM: TIMESTEP
150
ITEM: NUMBER OF ATOMS
96
ITEM: BOX BOUNDS pp pp pp
-4.1205000000000401e-02 1.0307205000000057e+01
1.0017944999999983e+01 2.0780055000000015e+01
-2.7070999999999845e-01 1.0536709999999982e+01
ITEM: ATOMS id type xs ys zs
1 1 0.343897 0.373166 0.934658
2 2 0.292029 0.434546 0.978764
3 2 0.280976 0.312464 0.908222
4 1 0.511426 0.730812 0.915441
5 2 0.491721 0.703472 -1.86855e-05
6 2 0.444692 0.791785 0.895098
7 1 0.630586 0.493954 0.301137
8 2 0.706269 0.529383 0.261476
9 2 0.55949 0.546133 0.27123
10 1 0.354763 0.917245 0.841392
11 2 0.347618 0.968071 0.913872
12 2 0.421074 0.955712 0.787844
13 1 0.38995 0.783014 0.390324
14 2 0.383314 0.855371 0.33315
15 2 0.46641 0.796917 0.439027
16 1 0.0503423 0.469702 0.305489
17 2 0.086428 0.530196 0.363936
18 2 0.0326526 0.394026 0.35409
19 1 0.787554 0.0803523 0.405387
20 2 0.839422 0.0388115 0.342158
21 2 0.841711 0.148722 0.433552
22 1 0.445374 0.636005 0.201874
23 2 0.360837 0.60132 0.180735
24 2 0.427463 0.6911 0.27251
25 1 0.167511 0.626852 0.466821
26 2 0.219403 0.565439 0.510938
27 2 0.230446 0.687535 0.440395
28 1 -1.28634e-05 0.269177 0.44759
29 2 0.0197098 0.296539 0.53217
30 2 0.0667279 0.208216 0.427273
31 1 0.858005 0.506034 0.768954
32 2 0.782307 0.470618 0.729304
33 2 0.929081 0.453876 0.739065
34 1 0.156656 0.0827506 0.373557
35 2 0.163804 0.0319288 0.446049
36 2 0.0903483 0.0442933 0.320021
37 1 0.121467 0.216986 0.858152
38 2 0.128109 0.144628 0.800977
39 2 0.0450198 0.203085 0.906853
40 1 0.461069 0.530304 0.77332
41 2 0.424996 0.4698 0.831764
42 2 0.478772 0.605974 0.821915
43 1 0.701022 0.91965 0.873215
44 2 0.649162 0.96119 0.809986
45 2 0.646866 0.851273 0.901378
46 1 0.066042 0.363994 0.669708
47 2 0.150585 0.398679 0.648561
48 2 0.0839592 0.308901 0.740337
49 1 0.656099 0.842965 0.533167
50 2 0.70797 0.904344 0.489071
51 2 0.719026 0.782262 0.559607
52 1 0.488564 0.261025 0.55241
53 2 0.508288 0.233665 0.467829
54 2 0.555307 0.321988 0.572729
55 1 0.369415 0.0241536 0.23104
56 2 0.293738 0.059582 0.270697
57 2 0.440503 0.0763298 0.260942
58 1 0.64526 0.447447 0.626423
59 2 0.652382 0.498271 0.55395
60 2 0.578909 0.485907 0.679997
61 1 0.610044 0.313193 0.141821
62 2 0.616688 0.385587 0.199047
63 2 0.533597 0.327118 0.0931468
64 1 0.949639 0.939529 0.226668
65 2 0.913587 -2.13207e-05 0.168248
66 2 0.967349 0.863824 0.178088
67 1 0.212461 0.550158 0.126762
68 2 0.160567 0.508609 0.19003
69 2 0.158286 0.618518 0.0986249
70 1 0.554626 0.166208 0.330294
71 2 0.639164 0.131524 0.351441
72 2 0.572537 0.221307 0.259662
73 1 0.83247 0.15703 0.0653403
74 2 0.780611 0.0956626 0.0212425
75 2 0.769554 0.217737 0.0917786
76 1 5.68232e-06 0.738987 0.0845574
77 2 0.980297 0.766324 1.83713e-05
78 2 0.933273 0.678011 0.104903
79 1 0.141999 0.97584 0.698872
80 2 0.217685 0.940418 0.738523
81 2 0.0709207 0.923674 0.728764
82 1 0.84333 0.552547 0.158605
83 2 0.836196 0.501728 0.0861276
84 2 0.909666 0.514095 0.212161
85 1 0.878531 0.686806 0.609646
86 2 0.87189 0.614414 0.666875
87 2 0.954984 0.672882 0.560976
88 1 0.538938 0.0604678 0.694498
89 2 0.574994 2.33762e-05 0.636073
90 2 0.521229 0.136176 0.645914
91 1 0.298957 0.449849 0.594599
92 2 0.350855 0.49139 0.657858
93 2 0.353139 0.381475 0.566448
94 1 0.933956 0.833796 0.798124
95 2 0.849418 0.868475 0.819266
96 2 0.916041 0.778696 0.727493
ITEM: TIMESTEP
200
ITEM: NUMBER OF ATOMS
96
ITEM: BOX BOUNDS pp pp pp
-1.4940000000000543e-02 1.0280940000000076e+01
1.0045259999999978e+01 2.0752740000000021e+01
-2.4327999999999794e-01 1.0509279999999976e+01
ITEM: ATOMS id type xs ys zs
1 1 0.34393 0.3732 0.934666
2 2 0.292022 0.434539 0.978778
3 2 0.280945 0.312442 0.908215
4 1 0.511462 0.730774 0.915463
5 2 0.491718 0.703487 -2.71952e-05
6 2 0.444659 0.791812 0.895094
7 1 0.630574 0.493917 0.301182
8 2 0.706305 0.529402 0.261448
9 2 0.559469 0.546159 0.271208
10 1 0.35477 0.917186 0.841345
11 2 0.34763 0.968112 0.913893
12 2 0.421059 0.955746 0.787865
13 1 0.389894 0.783026 0.390266
14 2 0.38333 0.855357 0.333188
15 2 0.466451 0.796941 0.439043
16 1 0.0503152 0.4697 0.305423
17 2 0.0864421 0.530201 0.363974
18 2 0.0326559 0.394024 0.354119
19 1 0.787529 0.0803302 0.405382
20 2 0.839432 0.0388076 0.342164
21 2 0.841733 0.148731 0.433549
22 1 0.445426 0.635998 0.201846
23 2 0.360801 0.601314 0.180732
24 2 0.427444 0.69111 0.272528
25 1 0.167449 0.626854 0.466809
26 2 0.219427 0.565418 0.510955
27 2 0.230479 0.687556 0.440389
28 1 -6.94004e-05 0.269192 0.447561
29 2 0.0197298 0.296546 0.53219
30 2 0.0667564 0.208191 0.427272
31 1 0.858045 0.506044 0.768975
32 2 0.782268 0.470602 0.729277
33 2 0.929091 0.453869 0.739058
34 1 0.156644 0.0828007 0.373496
35 2 0.163791 0.0318877 0.44608
36 2 0.0903635 0.0442706 0.320051
37 1 0.121514 0.216973 0.858098
38 2 0.128094 0.144641 0.801014
39 2 0.044993 0.203063 0.906865
40 1 0.461073 0.530318 0.773264
41 2 0.424987 0.469788 0.831802
42 2 0.478773 0.605975 0.82194
43 1 0.701043 0.919676 0.873213
44 2 0.649164 0.961197 0.809996
45 2 0.646844 0.851252 0.901373
46 1 0.0659767 0.364004 0.669698
47 2 0.150621 0.398683 0.648555
48 2 0.0839793 0.308892 0.740357
49 1 0.656058 0.843007 0.533156
50 2 0.707975 0.904338 0.489073
51 2 0.719062 0.782243 0.559615
52 1 0.488505 0.261008 0.552437
53 2 0.508309 0.233661 0.467804
54 2 0.555339 0.322016 0.572731
55 1 0.369428 0.0241052 0.231007
56 2 0.293718 0.0595911 0.270724
57 2 0.440511 0.0763426 0.260963
58 1 0.645303 0.447385 0.626445
59 2 0.652369 0.498307 0.553919
60 2 0.57889 0.485924 0.680001
61 1 0.610088 0.313153 0.141819
62 2 0.616676 0.385598 0.199056
63 2 0.533568 0.327139 0.0931331
64 1 0.949626 0.939588 0.226704
65 2 0.913602 -4.33807e-05 0.168232
66 2 0.96735 0.863827 0.17807
67 1 0.212517 0.550154 0.126718
68 2 0.160536 0.508609 0.190051
69 2 0.158261 0.618526 0.0986364
70 1 0.554574 0.166197 0.330308
71 2 0.639202 0.131519 0.351451
72 2 0.572558 0.221326 0.259642
73 1 0.832494 0.156978 0.0653309
74 2 0.780614 0.0956802 0.0212408
75 2 0.769522 0.217756 0.0917858
76 1 4.68074e-05 0.739028 0.0845332
77 2 0.98029 0.766307 2.62182e-05
78 2 0.933247 0.677984 0.104908
79 1 0.141967 0.975874 0.698851
80 2 0.217707 0.940408 0.738549
81 2 0.0709149 0.923668 0.728773
82 1 0.843312 0.552596 0.158646
83 2 0.836208 0.501691 0.0861047
84 2 0.90968 0.514084 0.212149
85 1 0.878483 0.686843 0.60964
86 2 0.871902 0.614408 0.666885
87 2 0.95502 0.672861 0.560966
88 1 0.538947 0.0604027 0.694539
89 2 0.574984 4.95825e-05 0.636054
90 2 0.52123 0.136173 0.645892
91 1 0.298894 0.449866 0.594574
92 2 0.350888 0.491389 0.657881
93 2 0.35317 0.381453 0.56645
94 1 0.934018 0.833813 0.798146
95 2 0.849388 0.868477 0.819272
96 2 0.916022 0.778683 0.727481
ITEM: TIMESTEP
250
ITEM: NUMBER OF ATOMS
96
ITEM: BOX BOUNDS pp pp pp
1.1324999999999242e-02 1.0254675000000095e+01
1.0072574999999972e+01 2.0725425000000026e+01
-2.1584999999999743e-01 1.0481849999999969e+01
ITEM: ATOMS id type xs ys zs
1 1 0.344286 0.37345 0.934696
2 2 0.2919 0.434555 0.978977
3 2 0.280651 0.312222 0.908146
4 1 0.51183 0.730461 0.915559
5 2 0.491665 0.703579 3.76786e-05
6 2 0.444356 0.792067 0.895038
7 1 0.630489 0.493584 0.301628
8 2 0.706659 0.529557 0.261189
9 2 0.559221 0.546414 0.270992
10 1 0.354756 0.916621 0.841017
11 2 0.34773 0.968468 0.914074
12 2 0.421004 0.956111 0.787977
13 1 0.389419 0.783008 0.389889
14 2 0.383455 0.855393 0.333417
15 2 0.466814 0.797157 0.439175
16 1 0.050071 0.46971 0.304803
17 2 0.0865816 0.530273 0.364315
18 2 0.0326626 0.393947 0.354401
19 1 0.787229 0.0801337 0.405399
20 2 0.839588 0.0387101 0.342156
21 2 0.841957 0.14886 0.433535
22 1 0.445935 0.635925 0.201558
23 2 0.360444 0.601236 0.180674
24 2 0.427272 0.691234 0.272732
25 1 0.166865 0.626889 0.466694
26 2 0.21965 0.565191 0.511128
27 2 0.23079 0.687779 0.440318
28 1 -0.000616802 0.269313 0.447278
29 2 0.0199098 0.296639 0.532423
30 2 0.0670263 0.207932 0.427235
31 1 0.858329 0.506183 0.769235
32 2 0.781889 0.470458 0.729018
33 2 0.92928 0.453733 0.738956
34 1 0.156633 0.0832797 0.373057
35 2 0.163679 0.0315389 0.446335
36 2 0.0903966 0.0439991 0.320232
37 1 0.121923 0.216983 0.85773
38 2 0.127977 0.144593 0.801237
39 2 0.0447508 0.202867 0.906984
40 1 0.461086 0.530421 0.772717
41 2 0.424891 0.469652 0.83216
42 2 0.478813 0.606059 0.8222
43 1 0.701309 0.919905 0.873267
44 2 0.649119 0.961331 0.810007
45 2 0.646614 0.851022 0.901333
46 1 0.0653582 0.364127 0.669584
47 2 0.15096 0.39874 0.648479
48 2 0.0841593 0.308774 0.740586
49 1 0.65562 0.843316 0.533113
50 2 0.708078 0.904376 0.489026
51 2 0.719386 0.782066 0.5597
52 1 0.487949 0.260865 0.55271
53 2 0.508495 0.233588 0.467538
54 2 0.555636 0.322289 0.572785
55 1 0.369524 0.0236224 0.230677
56 2 0.293495 0.0596624 0.270988
57 2 0.440642 0.0764789 0.261173
58 1 0.645738 0.446823 0.626592
59 2 0.652267 0.498622 0.553613
60 2 0.57869 0.486064 0.68008
61 1 0.610497 0.312753 0.141736
62 2 0.616586 0.385732 0.199198
63 2 0.533282 0.327322 0.092983
64 1 0.949556 0.940077 0.227123
65 2 0.913691 -0.000144575 0.167995
66 2 0.967364 0.863839 0.17791
67 1 0.21304 0.550075 0.12631
68 2 0.160255 0.508593 0.190254
69 2 0.157999 0.61866 0.0987124
70 1 0.554077 0.166087 0.33046
71 2 0.639576 0.131454 0.351565
72 2 0.572745 0.221533 0.259416
73 1 0.832796 0.156585 0.0653118
74 2 0.780554 0.0957398 0.0211442
75 2 0.769222 0.217929 0.0918574
76 1 0.00045779 0.739364 0.0844236
77 2 0.980204 0.766194 -4.5964e-05
78 2 0.933011 0.677724 0.104974
79 1 0.141725 0.976242 0.698618
80 2 0.217938 0.94033 0.738797
81 2 0.0707742 0.923571 0.728888
82 1 0.843086 0.553059 0.158946
83 2 0.836307 0.501359 0.0858933
84 2 0.909877 0.513954 0.212103
85 1 0.878033 0.687222 0.609517
86 2 0.871992 0.614307 0.667033
87 2 0.955367 0.672675 0.560859
88 1 0.538994 0.0598683 0.694989
89 2 0.574949 0.000191311 0.635784
90 2 0.521224 0.136158 0.645703
91 1 0.298317 0.450019 0.594333
92 2 0.351189 0.491406 0.658121
93 2 0.353464 0.381219 0.566454
94 1 0.934619 0.833987 0.798376
95 2 0.849091 0.868521 0.81935
96 2 0.915855 0.77854 0.727333
ITEM: TIMESTEP
300
ITEM: NUMBER OF ATOMS
96
ITEM: BOX BOUNDS pp pp pp
3.7589999999998992e-02 1.0228410000000114e+01
1.0099889999999967e+01 2.0698110000000032e+01
-1.8841999999999692e-01 1.0454419999999963e+01
ITEM: ATOMS id type xs ys zs
1 1 0.344654 0.373626 0.934683
2 2 0.291731 0.434648 0.979272
3 2 0.280381 0.312002 0.908075
4 1 0.512201 0.730213 0.915557
5 2 0.491592 0.703626 0.000266009
6 2 0.444085 0.792309 0.894957
7 1 0.63044 0.493317 0.302093
8 2 0.707026 0.529666 0.26094
9 2 0.558936 0.546671 0.270765
10 1 0.354699 0.916067 0.840827
11 2 0.347811 0.968777 0.914206
12 2 0.421009 0.956551 0.788
13 1 0.389026 0.782876 0.389684
14 2 0.383553 0.85562 0.33352
15 2 0.467124 0.797362 0.439276
16 1 0.0498354 0.469757 0.304217
17 2 0.0867209 0.530349 0.364619
18 2 0.0326391 0.393825 0.354681
19 1 0.786887 0.0799534 0.405472
20 2 0.839795 0.0385313 0.342084
21 2 0.8422 0.149016 0.433533
22 1 0.446423 0.635854 0.201248
23 2 0.360092 0.601138 0.180569
24 2 0.427122 0.691377 0.272947
25 1 0.166314 0.626947 0.466581
26 2 0.219832 0.564941 0.511311
27 2 0.231082 0.688026 0.440233
28 1 -0.00116289 0.26939 0.447008
29 2 0.0200716 0.296777 0.532669
30 2 0.0672661 0.207663 0.427149
31 1 0.858518 0.506315 0.769537
32 2 0.78151 0.470348 0.728754
33 2 0.929588 0.453534 0.738816
34 1 0.156704 0.0837406 0.372782
35 2 0.163577 0.0312501 0.446533
36 2 0.0903271 0.0436458 0.320315
37 1 0.122285 0.217113 0.857511
38 2 0.127883 0.144352 0.801339
39 2 0.0445491 0.202677 0.907091
40 1 0.461041 0.530497 0.772185
41 2 0.424799 0.469504 0.832498
42 2 0.478888 0.606204 0.822481
43 1 0.701619 0.920107 0.873405
44 2 0.649033 0.961558 0.809948
45 2 0.646376 0.85076 0.90129
46 1 0.0647654 0.36429 0.669478
47 2 0.151264 0.398805 0.648363
48 2 0.0843188 0.308629 0.740848
49 1 0.655165 0.843538 0.53313
50 2 0.70823 0.904512 0.488911
51 2 0.719672 0.781913 0.559785
52 1 0.487407 0.260771 0.552977
53 2 0.508665 0.233475 0.467257
54 2 0.555903 0.322564 0.572883
55 1 0.369583 0.0231296 0.230346
56 2 0.293259 0.0596779 0.271255
57 2 0.440817 0.0766002 0.261396
58 1 0.646201 0.446316 0.626669
59 2 0.652182 0.498897 0.55331
60 2 0.5785 0.486154 0.680192
61 1 0.610882 0.312352 0.141575
62 2 0.61653 0.385863 0.199393
63 2 0.533 0.32749 0.0928119
64 1 0.949523 0.940509 0.227607
65 2 0.913738 -0.000130547 0.167656
66 2 0.967393 0.863884 0.177797
67 1 0.213519 0.549948 0.125905
68 2 0.160014 0.508579 0.19044
69 2 0.157724 0.618845 0.098764
70 1 0.55361 0.165967 0.330609
71 2 0.639946 0.131374 0.351722
72 2 0.57292 0.221769 0.259164
73 1 0.833139 0.156281 0.0653797
74 2 0.780419 0.0956906 0.0209442
75 2 0.768948 0.218085 0.0919292
76 1 0.000871581 0.739633 0.0844181
77 2 0.980093 0.766124 -0.000282096
78 2 0.932824 0.677481 0.105067
79 1 0.141547 0.976645 0.698376
80 2 0.218167 0.940296 0.739047
81 2 0.0705377 0.923447 0.729028
82 1 0.842808 0.553495 0.159151
83 2 0.836392 0.50106 0.0857111
84 2 0.910143 0.513825 0.212119
85 1 0.877606 0.687603 0.609305
86 2 0.872048 0.614212 0.667235
87 2 0.955717 0.672509 0.560746
88 1 0.538998 0.0593954 0.695485
89 2 0.574968 0.000225105 0.635414
90 2 0.521205 0.1361 0.645573
91 1 0.2978 0.45016 0.594094
92 2 0.351467 0.491429 0.658373
93 2 0.35374 0.380963 0.566444
94 1 0.935213 0.834174 0.798611
95 2 0.848816 0.868585 0.819477
96 2 0.915719 0.778383 0.727183
ITEM: TIMESTEP
350
ITEM: NUMBER OF ATOMS
96
ITEM: BOX BOUNDS pp pp pp
6.3854999999998621e-02 1.0202145000000133e+01
1.0127204999999961e+01 2.0670795000000037e+01
-1.6098999999999641e-01 1.0426989999999957e+01
ITEM: ATOMS id type xs ys zs
1 1 0.345004 0.37375 0.934656
2 2 0.291541 0.434799 0.979647
3 2 0.280135 0.311775 0.907998
4 1 0.512565 0.730012 0.915518
5 2 0.491515 0.703635 0.000620728
6 2 0.44385 0.792546 0.894836
7 1 0.630416 0.493133 0.302575
8 2 0.707407 0.529721 0.260704
9 2 0.55862 0.546916 0.270536
10 1 0.354636 0.915552 0.840735
11 2 0.347858 0.969044 0.914322
12 2 0.421046 0.95704 0.787941
13 1 0.388696 0.782704 0.389597
14 2 0.383614 0.855983 0.33353
15 2 0.467408 0.797545 0.439372
16 1 0.0496068 0.469819 0.303691
17 2 0.0868634 0.530446 0.364878
18 2 0.0325779 0.393659 0.354938
19 1 0.786548 0.0797804 0.405581
20 2 0.840031 0.0382743 0.341967
21 2 0.84245 0.149198 0.433548
22 1 0.44687 0.635796 0.200922
23 2 0.359757 0.601016 0.180407
24 2 0.427009 0.691533 0.273163
25 1 0.165813 0.627032 0.466479
26 2 0.219958 0.564674 0.511499
27 2 0.231351 0.688299 0.440132
28 1 -0.00169912 0.269419 0.44677
29 2 0.020203 0.296964 0.532918
30 2 0.0674663 0.207381 0.427005
31 1 0.858646 0.506409 0.769873
32 2 0.781129 0.470276 0.728486
33 2 0.929988 0.453298 0.738651
34 1 0.156811 0.0841559 0.372619
35 2 0.163498 0.0310105 0.446713
36 2 0.0901904 0.0432418 0.320314
37 1 0.12261 0.217285 0.857392
38 2 0.127823 0.14397 0.80135
39 2 0.0443695 0.202505 0.90721
40 1 0.460943 0.530572 0.771697
41 2 0.424704 0.469335 0.832808
42 2 0.479 0.606405 0.822763
43 1 0.701931 0.920295 0.873604
44 2 0.648932 0.961871 0.809843
45 2 0.646138 0.850464 0.901248
46 1 0.0642104 0.364482 0.669396
47 2 0.15153 0.398885 0.648198
48 2 0.0844435 0.308462 0.741135
49 1 0.654722 0.84371 0.533182
50 2 0.7084 0.904729 0.488744
51 2 0.719919 0.781771 0.559877
52 1 0.486889 0.260724 0.553218
53 2 0.508807 0.233321 0.466974
54 2 0.556134 0.322841 0.573035
55 1 0.369616 0.0226428 0.230028
56 2 0.293003 0.0596265 0.271517
57 2 0.441031 0.0766885 0.261621
58 1 0.646677 0.445877 0.626687
59 2 0.652125 0.499135 0.552991
60 2 0.578332 0.486178 0.680336
61 1 0.611239 0.311986 0.141347
62 2 0.616518 0.385969 0.199634
63 2 0.532717 0.327632 0.0926088
64 1 0.949509 0.94092 0.228112
65 2 0.913754 -8.09827e-06 0.167251
66 2 0.967448 0.863944 0.177745
67 1 0.21393 0.549791 0.125491
68 2 0.159819 0.508556 0.190615
69 2 0.157453 0.619079 0.098785
70 1 0.553192 0.165851 0.330743
71 2 0.640304 0.131277 0.351931
72 2 0.573074 0.222026 0.258892
73 1 0.833488 0.156024 0.0655042
74 2 0.780241 0.0955576 0.0206594
75 2 0.768699 0.218232 0.0920091
76 1 0.00127891 0.739851 0.0844541
77 2 0.979977 0.766089 -0.000641821
78 2 0.932684 0.677246 0.105201
79 1 0.141406 0.977059 0.698142
80 2 0.218401 0.940314 0.739296
81 2 0.0702219 0.923321 0.729178
82 1 0.84251 0.553881 0.159288
83 2 0.836452 0.50079 0.085535
84 2 0.910454 0.513723 0.212191
85 1 0.877207 0.687951 0.609018
86 2 0.87206 0.614144 0.667483
87 2 0.956074 0.672372 0.560616
88 1 0.538983 0.0589476 0.695983
89 2 0.575028 0.000156229 0.634978
90 2 0.521161 0.136023 0.645511
91 1 0.297361 0.450282 0.593858
92 2 0.351712 0.491464 0.658637
93 2 0.353992 0.380679 0.566411
94 1 0.935785 0.834363 0.798843
95 2 0.848573 0.868673 0.819664
96 2 0.915628 0.778219 0.727034
ITEM: TIMESTEP
400
ITEM: NUMBER OF ATOMS
96
ITEM: BOX BOUNDS pp pp pp
9.0119999999998243e-02 1.0175880000000152e+01
1.0154519999999955e+01 2.0643480000000043e+01
-1.3355999999999590e-01 1.0399559999999951e+01
ITEM: ATOMS id type xs ys zs
1 1 0.345325 0.373847 0.934645
2 2 0.291348 0.434994 0.980107
3 2 0.279903 0.311527 0.907906
4 1 0.512928 0.729834 0.915496
5 2 0.491447 0.703615 0.00108377
6 2 0.443648 0.792791 0.89466
7 1 0.630409 0.493033 0.303097
8 2 0.70782 0.529719 0.260475
9 2 0.558272 0.547153 0.270302
10 1 0.354594 0.915084 0.840698
11 2 0.347859 0.969288 0.914458
12 2 0.421094 0.957574 0.787807
13 1 0.388401 0.782555 0.38958
14 2 0.383635 0.856448 0.333478
15 2 0.467698 0.797707 0.439487
16 1 0.0493738 0.46988 0.303219
17 2 0.0870175 0.530583 0.365098
18 2 0.0324687 0.39344 0.355171
19 1 0.786241 0.0795988 0.405714
20 2 0.84028 0.0379317 0.341817
21 2 0.842707 0.149412 0.433582
22 1 0.447279 0.635762 0.20057
23 2 0.359433 0.600863 0.180171
24 2 0.426939 0.691707 0.27338
25 1 0.165346 0.627152 0.466389
26 2 0.220023 0.564381 0.511698
27 2 0.231606 0.688612 0.44001
28 1 -0.00224566 0.269401 0.446568
29 2 0.0202997 0.297208 0.533173
30 2 0.067625 0.207073 0.426789
31 1 0.858747 0.50644 0.770253
32 2 0.780734 0.470245 0.728201
33 2 0.930471 0.45304 0.738469
34 1 0.156918 0.0845173 0.372514
35 2 0.163451 0.0308004 0.446916
36 2 0.0900107 0.0427955 0.320245
37 1 0.122917 0.217435 0.857332
38 2 0.127802 0.143479 0.801298
39 2 0.0441914 0.202351 0.907361
40 1 0.460793 0.530666 0.771255
41 2 0.424597 0.469131 0.833097
42 2 0.479154 0.606669 0.823044
43 1 0.70222 0.920491 0.873853
44 2 0.648839 0.962278 0.809711
45 2 0.645897 0.850127 0.901204
46 1 0.0636774 0.364705 0.669351
47 2 0.151763 0.39899 0.647972
48 2 0.0845275 0.308273 0.741452
49 1 0.654298 0.843873 0.533248
50 2 0.708569 0.905018 0.488533
51 2 0.720137 0.781627 0.559985
52 1 0.486377 0.260721 0.553432
53 2 0.50892 0.233117 0.466686
54 2 0.556334 0.323136 0.573253
55 1 0.369632 0.0221521 0.229717
56 2 0.29271 0.0594949 0.271784
57 2 0.441285 0.0767307 0.261847
58 1 0.647178 0.445492 0.626656
59 2 0.6521 0.499347 0.552625
60 2 0.578191 0.486124 0.680515
61 1 0.611581 0.311666 0.141047
62 2 0.616558 0.386038 0.199923
63 2 0.532417 0.32775 0.0923557
64 1 0.949492 0.94136 0.228615
65 2 0.913753 0.000222722 0.166797
66 2 0.967539 0.864011 0.177763
67 1 0.214268 0.549609 0.12504
68 2 0.159665 0.508511 0.190789
69 2 0.157187 0.619367 0.0987707
70 1 0.552817 0.165742 0.330858
71 2 0.640659 0.131158 0.352202
72 2 0.573205 0.222307 0.258595
73 1 0.833823 0.155767 0.0656623
74 2 0.780048 0.0953592 0.020295
75 2 0.768471 0.218383 0.0921061
76 1 0.0016882 0.740042 0.0844775
77 2 0.979866 0.76608 -0.00110388
78 2 0.932587 0.677005 0.105391
79 1 0.141275 0.97748 0.69792
80 2 0.218652 0.940393 0.739551
81 2 0.0698299 0.923211 0.729332
82 1 0.842202 0.554216 0.159384
83 2 0.836479 0.500531 0.085337
84 2 0.910805 0.513665 0.212315
85 1 0.876824 0.688258 0.608655
86 2 0.872018 0.614117 0.667776
87 2 0.956458 0.672264 0.560454
88 1 0.53897 0.0584747 0.696462
89 2 0.575122 -1.45581e-05 0.63449
90 2 0.521079 0.13594 0.645527
91 1 0.296991 0.450386 0.593615
92 2 0.351927 0.491518 0.658925
93 2 0.35423 0.380351 0.566348
94 1 0.936345 0.83455 0.799075
95 2 0.848363 0.868794 0.819927
96 2 0.915591 0.778047 0.726885
ITEM: TIMESTEP
450
ITEM: NUMBER OF ATOMS
96
ITEM: BOX BOUNDS pp pp pp
1.1638499999999787e-01 1.0149615000000171e+01
1.0181834999999950e+01 2.0616165000000048e+01