# Saved structures from Unity 
96 atoms
64 bonds
32 angles
2 atom types
1 bond types
1 angle types
-0.12 9.364874543243781 xlo xhi
9.936 19.80005285165427 ylo yhi
-0.353 9.55258190447986 zlo zhi

Masses 

1 15.9994  # O 
2 1.00794  # H 

Atoms 

1 1 1 0.0 3.492996 14.013 9.902
2 1 2 0.0 2.832001 13.35 9.612
3 1 2 0.0 2.947998 14.684 10.386
4 2 1 0.0 5.252998 17.921 9.691002
5 2 2 0.0 4.552002 18.587 9.468002
6 2 2 0.0 5.045998 17.622 10.619
7 3 1 0.0 6.505005 15.333 2.951
8 3 2 0.0 7.300003 15.72 2.515999
9 3 2 0.0 5.757996 15.903 2.623001
10 4 1 0.0 3.607002 19.958 8.878998
11 4 2 0.0 3.531998 20.513 9.674
12 4 2 0.0 4.304001 20.378 8.291
13 5 1 0.0 3.976997 18.491 3.93
14 5 2 0.0 4.779999 18.643 4.464001
15 5 2 0.0 3.906998 19.282 3.302002
16 6 1 0.0 0.4089966 15.068 2.999001
17 6 2 0.0 0.788002 15.729 3.639999
18 6 2 0.0 0.2229996 14.241 3.532001
19 7 1 0.0 8.153992 10.814 4.095001
20 7 2 0.0 8.722992 11.561 4.403999
21 7 2 0.0 8.699005 10.36 3.401001
22 8 1 0.0 4.558998 16.885 1.862
23 8 2 0.0 3.670998 16.506 1.630001
24 8 2 0.0 4.371002 17.487 2.637001
25 9 1 0.0 1.639999 16.785 4.769001
26 9 2 0.0 2.301003 17.448 4.479
27 9 2 0.0 2.184998 16.114 5.252998
28 10 1 0.0 -0.1200027 12.877 4.557999
29 10 2 0.0 0.5810013 12.211 4.334999
30 10 2 0.0 0.08699799 13.176 5.486
31 11 1 0.0 8.893997 15.465 8.084
32 11 2 0.0 8.098999 15.078 7.649002
33 11 2 0.0 9.640991 14.895 7.756001
34 12 1 0.0 1.526001 10.84 3.745998
35 12 2 0.0 1.600998 10.285 4.541
36 12 2 0.0 0.8290024 10.42 3.158001
37 13 1 0.0 1.155998 12.307 9.063
38 13 2 0.0 0.3529968 12.155 9.597
39 13 2 0.0 1.225998 11.516 8.435001
40 14 1 0.0 4.723999 15.73 8.132
41 14 2 0.0 4.345001 15.069 8.772999
42 14 2 0.0 4.910004 16.557 8.665001
43 15 1 0.0 7.244995 19.984 9.228001
44 15 2 0.0 6.676003 19.237 9.536999
45 15 2 0.0 6.699997 20.438 8.534
46 16 1 0.0 0.5739975 13.913 6.994999
47 16 2 0.0 1.461998 14.292 6.763
48 16 2 0.0 0.762001 13.311 7.77
49 17 1 0.0 6.772995 19.146 5.497002
50 17 2 0.0 7.433998 18.483 5.786999
51 17 2 0.0 7.318001 19.817 5.013
52 18 1 0.0 5.013 12.788 5.708
53 18 2 0.0 5.714005 13.454 5.931
54 18 2 0.0 5.220001 12.489 4.779999
55 19 1 0.0 3.761002 10.2 2.181999
56 19 2 0.0 2.966003 10.587 2.617001
57 19 2 0.0 4.507996 10.77 2.509998
58 20 1 0.0 6.658997 14.825 6.52
59 20 2 0.0 6.734001 15.38 5.724998
60 20 2 0.0 5.961998 15.245 7.108002
61 21 1 0.0 6.289001 13.358 1.202999
62 21 2 0.0 5.486 13.51 0.6689987
63 21 2 0.0 6.359001 14.149 1.831001
64 22 1 0.0 9.856995 20.201 2.133999
65 22 2 0.0 9.477997 20.862 1.493
66 22 2 0.0 10.043 19.374 1.601002
67 23 1 0.0 2.112 15.947 1.037998
68 23 2 0.0 1.542999 16.694 0.7290001
69 23 2 0.0 1.567001 15.493 1.731998
70 24 1 0.0 5.707001 11.752 3.271
71 24 2 0.0 6.595001 11.373 3.502998
72 24 2 0.0 5.895004 12.354 2.495998
73 25 1 0.0 8.626007 11.652 0.3639984
74 25 2 0.0 7.964996 12.315 0.6539993
75 25 2 0.0 8.080994 10.981 -0.1199989
76 26 1 0.0 10.386 18.01 0.5750008
77 26 2 0.0 9.684998 17.344 0.7980003
78 26 2 0.0 10.179 18.309 -0.3530006
79 27 1 0.0 1.372002 20.598 7.314999
80 27 2 0.0 2.167 20.211 7.75
81 27 2 0.0 0.625 20.028 7.643002
82 28 1 0.0 8.740005 15.973 1.387001
83 28 2 0.0 8.665009 15.418 0.5919991
84 28 2 0.0 9.436996 15.553 1.974998
85 29 1 0.0 9.110001 17.44 6.335999
86 29 2 0.0 9.912994 17.288 5.802002
87 29 2 0.0 9.040009 16.649 6.964001
88 30 1 0.0 5.542 10.597 7.266998
89 30 2 0.0 5.920998 9.936001 6.625999
90 30 2 0.0 5.356003 11.424 6.734001
91 31 1 0.0 3.020996 14.851 6.171001
92 31 2 0.0 3.589996 14.104 5.862
93 31 2 0.0 3.566002 15.305 6.864998
94 32 1 0.0 9.692001 19.046 8.403999
95 32 2 0.0 8.804001 19.425 8.636002
96 32 2 0.0 9.503998 18.444 7.629002

Bonds 

1 1 1 2
2 1 1 3
3 1 4 5
4 1 4 6
5 1 7 8
6 1 7 9
7 1 10 11
8 1 10 12
9 1 13 14
10 1 13 15
11 1 16 17
12 1 16 18
13 1 19 20
14 1 19 21
15 1 22 23
16 1 22 24
17 1 25 26
18 1 25 27
19 1 28 29
20 1 28 30
21 1 31 32
22 1 31 33
23 1 34 35
24 1 34 36
25 1 37 38
26 1 37 39
27 1 40 41
28 1 40 42
29 1 43 44
30 1 43 45
31 1 46 47
32 1 46 48
33 1 49 50
34 1 49 51
35 1 52 53
36 1 52 54
37 1 55 56
38 1 55 57
39 1 58 59
40 1 58 60
41 1 61 62
42 1 61 63
43 1 64 65
44 1 64 66
45 1 67 68
46 1 67 69
47 1 70 71
48 1 70 72
49 1 73 74
50 1 73 75
51 1 76 77
52 1 76 78
53 1 79 80
54 1 79 81
55 1 82 83
56 1 82 84
57 1 85 86
58 1 85 87
59 1 88 89
60 1 88 90
61 1 91 92
62 1 91 93
63 1 94 95
64 1 94 96

Angles 

1 1 2 1 3
2 1 5 4 6
3 1 8 7 9
4 1 11 10 12
5 1 14 13 15
6 1 17 16 18
7 1 20 19 21
8 1 23 22 24
9 1 26 25 27
10 1 29 28 30
11 1 32 31 33
12 1 35 34 36
13 1 38 37 39
14 1 41 40 42
15 1 44 43 45
16 1 47 46 48
17 1 50 49 51
18 1 53 52 54
19 1 56 55 57
20 1 59 58 60
21 1 62 61 63
22 1 65 64 66
23 1 68 67 69
24 1 71 70 72
25 1 74 73 75
26 1 77 76 78
27 1 80 79 81
28 1 83 82 84
29 1 86 85 87
30 1 89 88 90
31 1 92 91 93
32 1 95 94 96
