# LAMMPS data file written by OVITO Basic 3.5.4
972 atoms
648 bonds
2 atom types
1 bond types
0.074 24.719 xlo xhi
-0.357 24.933 ylo yhi
-0.233 12.459 zlo zhi

Masses

1 1.00794  # H
2 15.9994  # O

Atoms  # full

1 1 1 0.0 7.449 8.543 4.522
2 1 1 0.0 7.819 7.471 3.395
3 1 1 0.0 2.307 1.855 1.205
4 1 1 0.0 3.511 2.817 0.923
5 1 1 0.0 2.9 4.758 3.044
6 1 1 0.0 1.886 5.903 2.713
7 1 1 0.0 4.751 6.912 0.055
8 1 1 0.0 5.957 5.949 -0.219
9 1 1 0.0 7.026 3.433 3.897
10 1 1 0.0 6.011 2.289 4.225
11 1 1 0.0 0.445 3.372 1.562
12 1 1 0.0 0.816 4.442 0.434
13 1 1 0.0 5.365 0.66 1.908
14 1 1 0.0 6.375 1.808 2.24
15 1 1 0.0 2.249 6.384 0.727
16 1 1 0.0 1.239 7.533 1.056
17 1 1 0.0 4.95 3.748 2.542
18 1 1 0.0 4.579 4.823 1.417
19 1 1 0.0 7.643 5.376 2.046
20 1 1 0.0 6.443 6.344 1.766
21 1 1 0.0 1.822 2.251 3.19
22 1 1 0.0 0.618 1.284 2.915
23 1 1 0.0 3.314 -0.355 2.41
24 1 1 0.0 3.684 0.72 3.535
25 1 2 0.0 8.193 8.203 3.955
26 1 2 0.0 2.972 2.093 0.502
27 1 2 0.0 2.12 5.244 3.427
28 1 2 0.0 5.289 6.19 0.481
29 1 2 0.0 6.246 2.949 3.512
30 1 2 0.0 0.074 4.103 0.999
31 1 2 0.0 6.142 1.148 1.525
32 1 2 0.0 2.017 7.045 1.44
33 1 2 0.0 4.208 4.091 1.978
34 1 2 0.0 7.109 6.104 2.468
35 1 2 0.0 1.153 2.01 2.491
36 1 2 0.0 4.057 -0.012 2.975
37 1 1 0.0 15.712 8.541 4.523
38 1 1 0.0 16.082 7.469 3.396
39 1 1 0.0 10.57 1.854 1.206
40 1 1 0.0 11.774 2.815 0.925
41 1 1 0.0 11.163 4.757 3.046
42 1 1 0.0 10.149 5.902 2.715
43 1 1 0.0 13.014 6.911 0.056
44 1 1 0.0 14.22 5.947 -0.218
45 1 1 0.0 15.289 3.432 3.899
46 1 1 0.0 14.274 2.287 4.227
47 1 1 0.0 8.708 3.371 1.564
48 1 1 0.0 9.079 4.441 0.436
49 1 1 0.0 13.628 0.658 1.91
50 1 1 0.0 14.638 1.806 2.241
51 1 1 0.0 10.512 6.382 0.728
52 1 1 0.0 9.502 7.531 1.057
53 1 1 0.0 13.213 3.747 2.543
54 1 1 0.0 12.842 4.821 1.418
55 1 1 0.0 15.906 5.375 2.047
56 1 1 0.0 14.706 6.343 1.767
57 1 1 0.0 10.085 2.249 3.192
58 1 1 0.0 8.881 1.283 2.917
59 1 1 0.0 11.577 -0.356 2.411
60 1 1 0.0 11.947 0.718 3.536
61 1 2 0.0 16.456 8.202 3.957
62 1 2 0.0 11.235 2.092 0.503
63 1 2 0.0 10.383 5.242 3.428
64 1 2 0.0 13.552 6.188 0.483
65 1 2 0.0 14.509 2.948 3.514
66 1 2 0.0 8.337 4.102 1.001
67 1 2 0.0 14.405 1.146 1.526
68 1 2 0.0 10.28 7.043 1.442
69 1 2 0.0 12.471 4.09 1.98
70 1 2 0.0 15.372 6.103 2.469
71 1 2 0.0 9.416 2.009 2.492
72 1 2 0.0 12.32 -0.014 2.976
73 1 1 0.0 23.975 8.54 4.525
74 1 1 0.0 24.345 7.468 3.398
75 1 1 0.0 18.833 1.852 1.208
76 1 1 0.0 20.037 2.814 0.926
77 1 1 0.0 19.426 4.755 3.047
78 1 1 0.0 18.412 5.9 2.716
79 1 1 0.0 21.277 6.91 0.058
80 1 1 0.0 22.483 5.946 -0.216
81 1 1 0.0 23.552 3.43 3.9
82 1 1 0.0 22.537 2.286 4.228
83 1 1 0.0 16.971 3.369 1.565
84 1 1 0.0 17.342 4.439 0.437
85 1 1 0.0 21.891 0.657 1.911
86 1 1 0.0 22.901 1.805 2.243
87 1 1 0.0 18.775 6.381 0.73
88 1 1 0.0 17.765 7.53 1.058
89 1 1 0.0 21.476 3.745 2.545
90 1 1 0.0 21.105 4.82 1.42
91 1 1 0.0 24.169 5.373 2.048
92 1 1 0.0 22.969 6.341 1.769
93 1 1 0.0 18.348 2.248 3.193
94 1 1 0.0 17.144 1.281 2.918
95 1 1 0.0 19.84 -0.357 2.413
96 1 1 0.0 20.21 0.717 3.538
97 1 2 0.0 24.719 8.201 3.958
98 1 2 0.0 19.498 2.09 0.505
99 1 2 0.0 18.646 5.241 3.43
100 1 2 0.0 21.815 6.187 0.484
101 1 2 0.0 22.772 2.946 3.515
102 1 2 0.0 16.6 4.1 1.002
103 1 2 0.0 22.668 1.145 1.528
104 1 2 0.0 18.543 7.042 1.443
105 1 2 0.0 20.734 4.088 1.981
106 1 2 0.0 23.635 6.101 2.471
107 1 2 0.0 17.679 2.007 2.493
108 1 2 0.0 20.583 -0.015 2.978
109 1 1 0.0 7.449 16.738 4.515
110 1 1 0.0 7.819 15.666 3.388
111 1 1 0.0 2.307 10.05 1.198
112 1 1 0.0 3.511 11.012 0.916
113 1 1 0.0 2.9 12.953 3.037
114 1 1 0.0 1.886 14.098 2.706
115 1 1 0.0 4.751 15.107 0.048
116 1 1 0.0 5.957 14.144 -0.226
117 1 1 0.0 7.026 11.628 3.89
118 1 1 0.0 6.011 10.484 4.218
119 1 1 0.0 0.445 11.567 1.555
120 1 1 0.0 0.816 12.637 0.427
121 1 1 0.0 5.365 8.855 1.901
122 1 1 0.0 6.375 10.003 2.233
123 1 1 0.0 2.249 14.579 0.72
124 1 1 0.0 1.239 15.728 1.048
125 1 1 0.0 4.95 11.943 2.534
126 1 1 0.0 4.579 13.018 1.41
127 1 1 0.0 7.643 13.571 2.038
128 1 1 0.0 6.443 14.539 1.759
129 1 1 0.0 1.822 10.446 3.183
130 1 1 0.0 0.618 9.479 2.908
131 1 1 0.0 3.314 7.84 2.403
132 1 1 0.0 3.684 8.915 3.528
133 1 2 0.0 8.193 16.398 3.948
134 1 2 0.0 2.972 10.288 0.495
135 1 2 0.0 2.12 13.439 3.42
136 1 2 0.0 5.289 14.385 0.474
137 1 2 0.0 6.246 11.144 3.505
138 1 2 0.0 0.074 12.298 0.992
139 1 2 0.0 6.142 9.343 1.518
140 1 2 0.0 2.017 15.24 1.433
141 1 2 0.0 4.208 12.286 1.971
142 1 2 0.0 7.109 14.299 2.461
143 1 2 0.0 1.153 10.205 2.483
144 1 2 0.0 4.057 8.183 2.968
145 1 1 0.0 15.712 16.736 4.516
146 1 1 0.0 16.082 15.664 3.389
147 1 1 0.0 10.57 10.049 1.199
148 1 1 0.0 11.774 11.01 0.918
149 1 1 0.0 11.163 12.952 3.038
150 1 1 0.0 10.149 14.097 2.708
151 1 1 0.0 13.014 15.106 0.049
152 1 1 0.0 14.22 14.142 -0.225
153 1 1 0.0 15.289 11.627 3.892
154 1 1 0.0 14.274 10.482 4.219
155 1 1 0.0 8.708 11.566 1.556
156 1 1 0.0 9.079 12.636 0.429
157 1 1 0.0 13.628 8.853 1.903
158 1 1 0.0 14.638 10.001 2.234
159 1 1 0.0 10.512 14.577 0.721
160 1 1 0.0 9.502 15.726 1.05
161 1 1 0.0 13.213 11.942 2.536
162 1 1 0.0 12.842 13.016 1.411
163 1 1 0.0 15.906 13.57 2.04
164 1 1 0.0 14.706 14.538 1.76
165 1 1 0.0 10.085 10.444 3.184
166 1 1 0.0 8.881 9.478 2.909
167 1 1 0.0 11.577 7.839 2.404
168 1 1 0.0 11.947 8.913 3.529
169 1 2 0.0 16.456 16.397 3.95
170 1 2 0.0 11.235 10.287 0.496
171 1 2 0.0 10.383 13.437 3.421
172 1 2 0.0 13.552 14.383 0.476
173 1 2 0.0 14.509 11.143 3.507
174 1 2 0.0 8.337 12.297 0.994
175 1 2 0.0 14.405 9.341 1.519
176 1 2 0.0 10.28 15.238 1.434
177 1 2 0.0 12.471 12.285 1.973
178 1 2 0.0 15.372 14.298 2.462
179 1 2 0.0 9.416 10.204 2.485
180 1 2 0.0 12.32 8.181 2.969
181 1 1 0.0 23.975 16.735 4.518
182 1 1 0.0 24.345 15.663 3.391
183 1 1 0.0 18.833 10.047 1.2
184 1 1 0.0 20.037 11.009 0.919
185 1 1 0.0 19.426 12.95 3.04
186 1 1 0.0 18.412 14.095 2.709
187 1 1 0.0 21.277 15.105 0.05
188 1 1 0.0 22.483 14.141 -0.223
189 1 1 0.0 23.552 11.625 3.893
190 1 1 0.0 22.537 10.481 4.221
191 1 1 0.0 16.971 11.564 1.558
192 1 1 0.0 17.342 12.634 0.43
193 1 1 0.0 21.891 8.852 1.904
194 1 1 0.0 22.901 10.0 2.235
195 1 1 0.0 18.775 14.576 0.722
196 1 1 0.0 17.765 15.725 1.051
197 1 1 0.0 21.476 11.94 2.537
198 1 1 0.0 21.105 13.015 1.413
199 1 1 0.0 24.169 13.568 2.041
200 1 1 0.0 22.969 14.536 1.761
201 1 1 0.0 18.348 10.443 3.186
202 1 1 0.0 17.144 9.476 2.911
203 1 1 0.0 19.84 7.838 2.406
204 1 1 0.0 20.21 8.912 3.531
205 1 2 0.0 24.719 16.396 3.951
206 1 2 0.0 19.498 10.285 0.497
207 1 2 0.0 18.646 13.436 3.423
208 1 2 0.0 21.815 14.382 0.477
209 1 2 0.0 22.772 11.141 3.508
210 1 2 0.0 16.6 12.295 0.995
211 1 2 0.0 22.668 9.34 1.521
212 1 2 0.0 18.543 15.237 1.436
213 1 2 0.0 20.734 12.283 1.974
214 1 2 0.0 23.635 14.296 2.463
215 1 2 0.0 17.679 10.202 2.486
216 1 2 0.0 20.583 8.18 2.971
217 1 1 0.0 7.449 24.933 4.507
218 1 1 0.0 7.819 23.861 3.381
219 1 1 0.0 2.307 18.245 1.19
220 1 1 0.0 3.511 19.207 0.909
221 1 1 0.0 2.9 21.148 3.03
222 1 1 0.0 1.886 22.293 2.699
223 1 1 0.0 4.751 23.302 0.04
224 1 1 0.0 5.957 22.339 -0.233
225 1 1 0.0 7.026 19.823 3.883
226 1 1 0.0 6.011 18.679 4.211
227 1 1 0.0 0.445 19.762 1.548
228 1 1 0.0 0.816 20.832 0.42
229 1 1 0.0 5.365 17.05 1.894
230 1 1 0.0 6.375 18.198 2.225
231 1 1 0.0 2.249 22.774 0.712
232 1 1 0.0 1.239 23.923 1.041
233 1 1 0.0 4.95 20.138 2.527
234 1 1 0.0 4.579 21.213 1.402
235 1 1 0.0 7.643 21.766 2.031
236 1 1 0.0 6.443 22.734 1.751
237 1 1 0.0 1.822 18.641 3.176
238 1 1 0.0 0.618 17.674 2.901
239 1 1 0.0 3.314 16.035 2.396
240 1 1 0.0 3.684 17.11 3.521
241 1 2 0.0 8.193 24.593 3.941
242 1 2 0.0 2.972 18.483 0.487
243 1 2 0.0 2.12 21.634 3.413
244 1 2 0.0 5.289 22.58 0.467
245 1 2 0.0 6.246 19.339 3.498
246 1 2 0.0 0.074 20.493 0.985
247 1 2 0.0 6.142 17.538 1.511
248 1 2 0.0 2.017 23.435 1.426
249 1 2 0.0 4.208 20.481 1.964
250 1 2 0.0 7.109 22.494 2.453
251 1 2 0.0 1.153 18.4 2.476
252 1 2 0.0 4.057 16.378 2.96
253 1 1 0.0 15.712 24.931 4.509
254 1 1 0.0 16.082 23.859 3.382
255 1 1 0.0 10.57 18.243 1.192
256 1 1 0.0 11.774 19.205 0.91
257 1 1 0.0 11.163 21.147 3.031
258 1 1 0.0 10.149 22.292 2.701
259 1 1 0.0 13.014 23.301 0.042
260 1 1 0.0 14.22 22.337 -0.232
261 1 1 0.0 15.289 19.822 3.885
262 1 1 0.0 14.274 18.677 4.212
263 1 1 0.0 8.708 19.761 1.549
264 1 1 0.0 9.079 20.831 0.421
265 1 1 0.0 13.628 17.048 1.896
266 1 1 0.0 14.638 18.196 2.227
267 1 1 0.0 10.512 22.772 0.714
268 1 1 0.0 9.502 23.921 1.043
269 1 1 0.0 13.213 20.137 2.529
270 1 1 0.0 12.842 21.211 1.404
271 1 1 0.0 15.906 21.765 2.033
272 1 1 0.0 14.706 22.733 1.753
273 1 1 0.0 10.085 18.639 3.177
274 1 1 0.0 8.881 17.673 2.902
275 1 1 0.0 11.577 16.034 2.397
276 1 1 0.0 11.947 17.108 3.522
277 1 2 0.0 16.456 24.592 3.942
278 1 2 0.0 11.235 18.482 0.489
279 1 2 0.0 10.383 21.632 3.414
280 1 2 0.0 13.552 22.578 0.469
281 1 2 0.0 14.509 19.338 3.5
282 1 2 0.0 8.337 20.492 0.986
283 1 2 0.0 14.405 17.536 1.512
284 1 2 0.0 10.28 23.433 1.427
285 1 2 0.0 12.471 20.48 1.965
286 1 2 0.0 15.372 22.493 2.455
287 1 2 0.0 9.416 18.399 2.478
288 1 2 0.0 12.32 16.376 2.962
289 1 1 0.0 23.975 24.93 4.51
290 1 1 0.0 24.345 23.858 3.384
291 1 1 0.0 18.833 18.242 1.193
292 1 1 0.0 20.037 19.204 0.912
293 1 1 0.0 19.426 21.145 3.033
294 1 1 0.0 18.412 22.29 2.702
295 1 1 0.0 21.277 23.3 0.043
296 1 1 0.0 22.483 22.336 -0.231
297 1 1 0.0 23.552 19.82 3.886
298 1 1 0.0 22.537 18.676 4.214
299 1 1 0.0 16.971 19.759 1.551
300 1 1 0.0 17.342 20.829 0.423
301 1 1 0.0 21.891 17.047 1.897
302 1 1 0.0 22.901 18.195 2.228
303 1 1 0.0 18.775 22.771 0.715
304 1 1 0.0 17.765 23.92 1.044
305 1 1 0.0 21.476 20.135 2.53
306 1 1 0.0 21.105 21.21 1.405
307 1 1 0.0 24.169 21.763 2.034
308 1 1 0.0 22.969 22.731 1.754
309 1 1 0.0 18.348 18.638 3.179
310 1 1 0.0 17.144 17.671 2.904
311 1 1 0.0 19.84 16.033 2.399
312 1 1 0.0 20.21 17.107 3.524
313 1 2 0.0 24.719 24.591 3.944
314 1 2 0.0 19.498 18.48 0.49
315 1 2 0.0 18.646 21.631 3.415
316 1 2 0.0 21.815 22.577 0.47
317 1 2 0.0 22.772 19.336 3.501
318 1 2 0.0 16.6 20.49 0.988
319 1 2 0.0 22.668 17.535 1.514
320 1 2 0.0 18.543 23.432 1.429
321 1 2 0.0 20.734 20.478 1.967
322 1 2 0.0 23.635 22.491 2.456
323 1 2 0.0 17.679 18.397 2.479
324 1 2 0.0 20.583 16.375 2.963
325 1 1 0.0 7.449 8.543 8.489
326 1 1 0.0 7.819 7.471 7.362
327 1 1 0.0 2.307 1.855 5.172
328 1 1 0.0 3.511 2.817 4.89
329 1 1 0.0 2.9 4.758 7.011
330 1 1 0.0 1.886 5.903 6.68
331 1 1 0.0 4.751 6.912 4.022
332 1 1 0.0 5.957 5.949 3.748
333 1 1 0.0 7.026 3.433 7.864
334 1 1 0.0 6.011 2.289 8.192
335 1 1 0.0 0.445 3.372 5.529
336 1 1 0.0 0.816 4.442 4.401
337 1 1 0.0 5.365 0.66 5.875
338 1 1 0.0 6.375 1.808 6.207
339 1 1 0.0 2.249 6.384 4.694
340 1 1 0.0 1.239 7.533 5.023
341 1 1 0.0 4.95 3.748 6.509
342 1 1 0.0 4.579 4.823 5.384
343 1 1 0.0 7.643 5.376 6.013
344 1 1 0.0 6.443 6.344 5.733
345 1 1 0.0 1.822 2.251 7.157
346 1 1 0.0 0.618 1.284 6.882
347 1 1 0.0 3.314 -0.355 6.377
348 1 1 0.0 3.684 0.72 7.502
349 1 2 0.0 8.193 8.203 7.922
350 1 2 0.0 2.972 2.093 4.469
351 1 2 0.0 2.12 5.244 7.394
352 1 2 0.0 5.289 6.19 4.448
353 1 2 0.0 6.246 2.949 7.479
354 1 2 0.0 0.074 4.103 4.966
355 1 2 0.0 6.142 1.148 5.492
356 1 2 0.0 2.017 7.045 5.407
357 1 2 0.0 4.208 4.091 5.945
358 1 2 0.0 7.109 6.104 6.435
359 1 2 0.0 1.153 2.01 6.458
360 1 2 0.0 4.057 -0.012 6.942
361 1 1 0.0 15.712 8.541 8.49
362 1 1 0.0 16.082 7.469 7.363
363 1 1 0.0 10.57 1.854 5.173
364 1 1 0.0 11.774 2.815 4.892
365 1 1 0.0 11.163 4.757 7.013
366 1 1 0.0 10.149 5.902 6.682
367 1 1 0.0 13.014 6.911 4.023
368 1 1 0.0 14.22 5.947 3.749
369 1 1 0.0 15.289 3.432 7.866
370 1 1 0.0 14.274 2.287 8.194
371 1 1 0.0 8.708 3.371 5.531
372 1 1 0.0 9.079 4.441 4.403
373 1 1 0.0 13.628 0.658 5.877
374 1 1 0.0 14.638 1.806 6.208
375 1 1 0.0 10.512 6.382 4.695
376 1 1 0.0 9.502 7.531 5.024
377 1 1 0.0 13.213 3.747 6.51
378 1 1 0.0 12.842 4.821 5.385
379 1 1 0.0 15.906 5.375 6.014
380 1 1 0.0 14.706 6.343 5.734
381 1 1 0.0 10.085 2.249 7.159
382 1 1 0.0 8.881 1.283 6.884
383 1 1 0.0 11.577 -0.356 6.378
384 1 1 0.0 11.947 0.718 7.503
385 1 2 0.0 16.456 8.202 7.924
386 1 2 0.0 11.235 2.092 4.47
387 1 2 0.0 10.383 5.242 7.395
388 1 2 0.0 13.552 6.188 4.45
389 1 2 0.0 14.509 2.948 7.481
390 1 2 0.0 8.337 4.102 4.968
391 1 2 0.0 14.405 1.146 5.493
392 1 2 0.0 10.28 7.043 5.409
393 1 2 0.0 12.471 4.09 5.947
394 1 2 0.0 15.372 6.103 6.436
395 1 2 0.0 9.416 2.009 6.459
396 1 2 0.0 12.32 -0.014 6.943
397 1 1 0.0 23.975 8.54 8.492
398 1 1 0.0 24.345 7.468 7.365
399 1 1 0.0 18.833 1.852 5.175
400 1 1 0.0 20.037 2.814 4.893
401 1 1 0.0 19.426 4.755 7.014
402 1 1 0.0 18.412 5.9 6.683
403 1 1 0.0 21.277 6.91 4.025
404 1 1 0.0 22.483 5.946 3.751
405 1 1 0.0 23.552 3.43 7.867
406 1 1 0.0 22.537 2.286 8.195
407 1 1 0.0 16.971 3.369 5.532
408 1 1 0.0 17.342 4.439 4.404
409 1 1 0.0 21.891 0.657 5.878
410 1 1 0.0 22.901 1.805 6.21
411 1 1 0.0 18.775 6.381 4.697
412 1 1 0.0 17.765 7.53 5.025
413 1 1 0.0 21.476 3.745 6.512
414 1 1 0.0 21.105 4.82 5.387
415 1 1 0.0 24.169 5.373 6.015
416 1 1 0.0 22.969 6.341 5.736
417 1 1 0.0 18.348 2.248 7.16
418 1 1 0.0 17.144 1.281 6.885
419 1 1 0.0 19.84 -0.357 6.38
420 1 1 0.0 20.21 0.717 7.505
421 1 2 0.0 24.719 8.201 7.925
422 1 2 0.0 19.498 2.09 4.472
423 1 2 0.0 18.646 5.241 7.397
424 1 2 0.0 21.815 6.187 4.451
425 1 2 0.0 22.772 2.946 7.482
426 1 2 0.0 16.6 4.1 4.969
427 1 2 0.0 22.668 1.145 5.495
428 1 2 0.0 18.543 7.042 5.41
429 1 2 0.0 20.734 4.088 5.948
430 1 2 0.0 23.635 6.101 6.438
431 1 2 0.0 17.679 2.007 6.46
432 1 2 0.0 20.583 -0.015 6.945
433 1 1 0.0 7.449 16.738 8.482
434 1 1 0.0 7.819 15.666 7.355
435 1 1 0.0 2.307 10.05 5.165
436 1 1 0.0 3.511 11.012 4.883
437 1 1 0.0 2.9 12.953 7.004
438 1 1 0.0 1.886 14.098 6.673
439 1 1 0.0 4.751 15.107 4.015
440 1 1 0.0 5.957 14.144 3.741
441 1 1 0.0 7.026 11.628 7.857
442 1 1 0.0 6.011 10.484 8.185
443 1 1 0.0 0.445 11.567 5.522
444 1 1 0.0 0.816 12.637 4.394
445 1 1 0.0 5.365 8.855 5.868
446 1 1 0.0 6.375 10.003 6.2
447 1 1 0.0 2.249 14.579 4.687
448 1 1 0.0 1.239 15.728 5.015
449 1 1 0.0 4.95 11.943 6.501
450 1 1 0.0 4.579 13.018 5.377
451 1 1 0.0 7.643 13.571 6.005
452 1 1 0.0 6.443 14.539 5.726
453 1 1 0.0 1.822 10.446 7.15
454 1 1 0.0 0.618 9.479 6.875
455 1 1 0.0 3.314 7.84 6.37
456 1 1 0.0 3.684 8.915 7.495
457 1 2 0.0 8.193 16.398 7.915
458 1 2 0.0 2.972 10.288 4.462
459 1 2 0.0 2.12 13.439 7.387
460 1 2 0.0 5.289 14.385 4.441
461 1 2 0.0 6.246 11.144 7.472
462 1 2 0.0 0.074 12.298 4.959
463 1 2 0.0 6.142 9.343 5.485
464 1 2 0.0 2.017 15.24 5.4
465 1 2 0.0 4.208 12.286 5.938
466 1 2 0.0 7.109 14.299 6.428
467 1 2 0.0 1.153 10.205 6.45
468 1 2 0.0 4.057 8.183 6.935
469 1 1 0.0 15.712 16.736 8.483
470 1 1 0.0 16.082 15.664 7.356
471 1 1 0.0 10.57 10.049 5.166
472 1 1 0.0 11.774 11.01 4.885
473 1 1 0.0 11.163 12.952 7.005
474 1 1 0.0 10.149 14.097 6.675
475 1 1 0.0 13.014 15.106 4.016
476 1 1 0.0 14.22 14.142 3.742
477 1 1 0.0 15.289 11.627 7.859
478 1 1 0.0 14.274 10.482 8.186
479 1 1 0.0 8.708 11.566 5.523
480 1 1 0.0 9.079 12.636 4.396
481 1 1 0.0 13.628 8.853 5.87
482 1 1 0.0 14.638 10.001 6.201
483 1 1 0.0 10.512 14.577 4.688
484 1 1 0.0 9.502 15.726 5.017
485 1 1 0.0 13.213 11.942 6.503
486 1 1 0.0 12.842 13.016 5.378
487 1 1 0.0 15.906 13.57 6.007
488 1 1 0.0 14.706 14.538 5.727
489 1 1 0.0 10.085 10.444 7.151
490 1 1 0.0 8.881 9.478 6.876
491 1 1 0.0 11.577 7.839 6.371
492 1 1 0.0 11.947 8.913 7.496
493 1 2 0.0 16.456 16.397 7.917
494 1 2 0.0 11.235 10.287 4.463
495 1 2 0.0 10.383 13.437 7.388
496 1 2 0.0 13.552 14.383 4.443
497 1 2 0.0 14.509 11.143 7.474
498 1 2 0.0 8.337 12.297 4.961
499 1 2 0.0 14.405 9.341 5.486
500 1 2 0.0 10.28 15.238 5.401
501 1 2 0.0 12.471 12.285 5.94
502 1 2 0.0 15.372 14.298 6.429
503 1 2 0.0 9.416 10.204 6.452
504 1 2 0.0 12.32 8.181 6.936
505 1 1 0.0 23.975 16.735 8.485
506 1 1 0.0 24.345 15.663 7.358
507 1 1 0.0 18.833 10.047 5.167
508 1 1 0.0 20.037 11.009 4.886
509 1 1 0.0 19.426 12.95 7.007
510 1 1 0.0 18.412 14.095 6.676
511 1 1 0.0 21.277 15.105 4.017
512 1 1 0.0 22.483 14.141 3.744
513 1 1 0.0 23.552 11.625 7.86
514 1 1 0.0 22.537 10.481 8.188
515 1 1 0.0 16.971 11.564 5.525
516 1 1 0.0 17.342 12.634 4.397
517 1 1 0.0 21.891 8.852 5.871
518 1 1 0.0 22.901 10.0 6.202
519 1 1 0.0 18.775 14.576 4.689
520 1 1 0.0 17.765 15.725 5.018
521 1 1 0.0 21.476 11.94 6.504
522 1 1 0.0 21.105 13.015 5.38
523 1 1 0.0 24.169 13.568 6.008
524 1 1 0.0 22.969 14.536 5.728
525 1 1 0.0 18.348 10.443 7.153
526 1 1 0.0 17.144 9.476 6.878
527 1 1 0.0 19.84 7.838 6.373
528 1 1 0.0 20.21 8.912 7.498
529 1 2 0.0 24.719 16.396 7.918
530 1 2 0.0 19.498 10.285 4.464
531 1 2 0.0 18.646 13.436 7.39
532 1 2 0.0 21.815 14.382 4.444
533 1 2 0.0 22.772 11.141 7.475
534 1 2 0.0 16.6 12.295 4.962
535 1 2 0.0 22.668 9.34 5.488
536 1 2 0.0 18.543 15.237 5.403
537 1 2 0.0 20.734 12.283 5.941
538 1 2 0.0 23.635 14.296 6.43
539 1 2 0.0 17.679 10.202 6.453
540 1 2 0.0 20.583 8.18 6.938
541 1 1 0.0 7.449 24.933 8.474
542 1 1 0.0 7.819 23.861 7.348
543 1 1 0.0 2.307 18.245 5.157
544 1 1 0.0 3.511 19.207 4.876
545 1 1 0.0 2.9 21.148 6.997
546 1 1 0.0 1.886 22.293 6.666
547 1 1 0.0 4.751 23.302 4.007
548 1 1 0.0 5.957 22.339 3.734
549 1 1 0.0 7.026 19.823 7.85
550 1 1 0.0 6.011 18.679 8.178
551 1 1 0.0 0.445 19.762 5.515
552 1 1 0.0 0.816 20.832 4.387
553 1 1 0.0 5.365 17.05 5.861
554 1 1 0.0 6.375 18.198 6.192
555 1 1 0.0 2.249 22.774 4.679
556 1 1 0.0 1.239 23.923 5.008
557 1 1 0.0 4.95 20.138 6.494
558 1 1 0.0 4.579 21.213 5.369
559 1 1 0.0 7.643 21.766 5.998
560 1 1 0.0 6.443 22.734 5.718
561 1 1 0.0 1.822 18.641 7.143
562 1 1 0.0 0.618 17.674 6.868
563 1 1 0.0 3.314 16.035 6.363
564 1 1 0.0 3.684 17.11 7.488
565 1 2 0.0 8.193 24.593 7.908
566 1 2 0.0 2.972 18.483 4.454
567 1 2 0.0 2.12 21.634 7.38
568 1 2 0.0 5.289 22.58 4.434
569 1 2 0.0 6.246 19.339 7.465
570 1 2 0.0 0.074 20.493 4.952
571 1 2 0.0 6.142 17.538 5.478
572 1 2 0.0 2.017 23.435 5.393
573 1 2 0.0 4.208 20.481 5.931
574 1 2 0.0 7.109 22.494 6.42
575 1 2 0.0 1.153 18.4 6.443
576 1 2 0.0 4.057 16.378 6.927
577 1 1 0.0 15.712 24.931 8.476
578 1 1 0.0 16.082 23.859 7.349
579 1 1 0.0 10.57 18.243 5.159
580 1 1 0.0 11.774 19.205 4.877
581 1 1 0.0 11.163 21.147 6.998
582 1 1 0.0 10.149 22.292 6.668
583 1 1 0.0 13.014 23.301 4.009
584 1 1 0.0 14.22 22.337 3.735
585 1 1 0.0 15.289 19.822 7.852
586 1 1 0.0 14.274 18.677 8.179
587 1 1 0.0 8.708 19.761 5.516
588 1 1 0.0 9.079 20.831 4.388
589 1 1 0.0 13.628 17.048 5.863
590 1 1 0.0 14.638 18.196 6.194
591 1 1 0.0 10.512 22.772 4.681
592 1 1 0.0 9.502 23.921 5.01
593 1 1 0.0 13.213 20.137 6.496
594 1 1 0.0 12.842 21.211 5.371
595 1 1 0.0 15.906 21.765 6.0
596 1 1 0.0 14.706 22.733 5.72
597 1 1 0.0 10.085 18.639 7.144
598 1 1 0.0 8.881 17.673 6.869
599 1 1 0.0 11.577 16.034 6.364
600 1 1 0.0 11.947 17.108 7.489
601 1 2 0.0 16.456 24.592 7.909
602 1 2 0.0 11.235 18.482 4.456
603 1 2 0.0 10.383 21.632 7.381
604 1 2 0.0 13.552 22.578 4.436
605 1 2 0.0 14.509 19.338 7.467
606 1 2 0.0 8.337 20.492 4.953
607 1 2 0.0 14.405 17.536 5.479
608 1 2 0.0 10.28 23.433 5.394
609 1 2 0.0 12.471 20.48 5.932
610 1 2 0.0 15.372 22.493 6.422
611 1 2 0.0 9.416 18.399 6.445
612 1 2 0.0 12.32 16.376 6.929
613 1 1 0.0 23.975 24.93 8.477
614 1 1 0.0 24.345 23.858 7.351
615 1 1 0.0 18.833 18.242 5.16
616 1 1 0.0 20.037 19.204 4.879
617 1 1 0.0 19.426 21.145 7.0
618 1 1 0.0 18.412 22.29 6.669
619 1 1 0.0 21.277 23.3 4.01
620 1 1 0.0 22.483 22.336 3.736
621 1 1 0.0 23.552 19.82 7.853
622 1 1 0.0 22.537 18.676 8.181
623 1 1 0.0 16.971 19.759 5.518
624 1 1 0.0 17.342 20.829 4.39
625 1 1 0.0 21.891 17.047 5.864
626 1 1 0.0 22.901 18.195 6.195
627 1 1 0.0 18.775 22.771 4.682
628 1 1 0.0 17.765 23.92 5.011
629 1 1 0.0 21.476 20.135 6.497
630 1 1 0.0 21.105 21.21 5.372
631 1 1 0.0 24.169 21.763 6.001
632 1 1 0.0 22.969 22.731 5.721
633 1 1 0.0 18.348 18.638 7.146
634 1 1 0.0 17.144 17.671 6.871
635 1 1 0.0 19.84 16.033 6.366
636 1 1 0.0 20.21 17.107 7.491
637 1 2 0.0 24.719 24.591 7.911
638 1 2 0.0 19.498 18.48 4.457
639 1 2 0.0 18.646 21.631 7.382
640 1 2 0.0 21.815 22.577 4.437
641 1 2 0.0 22.772 19.336 7.468
642 1 2 0.0 16.6 20.49 4.955
643 1 2 0.0 22.668 17.535 5.481
644 1 2 0.0 18.543 23.432 5.396
645 1 2 0.0 20.734 20.478 5.934
646 1 2 0.0 23.635 22.491 6.423
647 1 2 0.0 17.679 18.397 6.446
648 1 2 0.0 20.583 16.375 6.93
649 1 1 0.0 7.449 8.543 12.456
650 1 1 0.0 7.819 7.471 11.329
651 1 1 0.0 2.307 1.855 9.139
652 1 1 0.0 3.511 2.817 8.857
653 1 1 0.0 2.9 4.758 10.978
654 1 1 0.0 1.886 5.903 10.647
655 1 1 0.0 4.751 6.912 7.989
656 1 1 0.0 5.957 5.949 7.715
657 1 1 0.0 7.026 3.433 11.831
658 1 1 0.0 6.011 2.289 12.159
659 1 1 0.0 0.445 3.372 9.496
660 1 1 0.0 0.816 4.442 8.368
661 1 1 0.0 5.365 0.66 9.842
662 1 1 0.0 6.375 1.808 10.174
663 1 1 0.0 2.249 6.384 8.661
664 1 1 0.0 1.239 7.533 8.99
665 1 1 0.0 4.95 3.748 10.476
666 1 1 0.0 4.579 4.823 9.351
667 1 1 0.0 7.643 5.376 9.98
668 1 1 0.0 6.443 6.344 9.7
669 1 1 0.0 1.822 2.251 11.124
670 1 1 0.0 0.618 1.284 10.849
671 1 1 0.0 3.314 -0.355 10.344
672 1 1 0.0 3.684 0.72 11.469
673 1 2 0.0 8.193 8.203 11.889
674 1 2 0.0 2.972 2.093 8.436
675 1 2 0.0 2.12 5.244 11.361
676 1 2 0.0 5.289 6.19 8.415
677 1 2 0.0 6.246 2.949 11.446
678 1 2 0.0 0.074 4.103 8.933
679 1 2 0.0 6.142 1.148 9.459
680 1 2 0.0 2.017 7.045 9.374
681 1 2 0.0 4.208 4.091 9.912
682 1 2 0.0 7.109 6.104 10.402
683 1 2 0.0 1.153 2.01 10.425
684 1 2 0.0 4.057 -0.012 10.909
685 1 1 0.0 15.712 8.541 12.457
686 1 1 0.0 16.082 7.469 11.33
687 1 1 0.0 10.57 1.854 9.14
688 1 1 0.0 11.774 2.815 8.859
689 1 1 0.0 11.163 4.757 10.98
690 1 1 0.0 10.149 5.902 10.649
691 1 1 0.0 13.014 6.911 7.99
692 1 1 0.0 14.22 5.947 7.716
693 1 1 0.0 15.289 3.432 11.833
694 1 1 0.0 14.274 2.287 12.161
695 1 1 0.0 8.708 3.371 9.498
696 1 1 0.0 9.079 4.441 8.37
697 1 1 0.0 13.628 0.658 9.844
698 1 1 0.0 14.638 1.806 10.175
699 1 1 0.0 10.512 6.382 8.662
700 1 1 0.0 9.502 7.531 8.991
701 1 1 0.0 13.213 3.747 10.477
702 1 1 0.0 12.842 4.821 9.352
703 1 1 0.0 15.906 5.375 9.981
704 1 1 0.0 14.706 6.343 9.701
705 1 1 0.0 10.085 2.249 11.126
706 1 1 0.0 8.881 1.283 10.851
707 1 1 0.0 11.577 -0.356 10.345
708 1 1 0.0 11.947 0.718 11.47
709 1 2 0.0 16.456 8.202 11.891
710 1 2 0.0 11.235 2.092 8.437
711 1 2 0.0 10.383 5.242 11.362
712 1 2 0.0 13.552 6.188 8.417
713 1 2 0.0 14.509 2.948 11.448
714 1 2 0.0 8.337 4.102 8.935
715 1 2 0.0 14.405 1.146 9.46
716 1 2 0.0 10.28 7.043 9.376
717 1 2 0.0 12.471 4.09 9.914
718 1 2 0.0 15.372 6.103 10.403
719 1 2 0.0 9.416 2.009 10.426
720 1 2 0.0 12.32 -0.014 10.91
721 1 1 0.0 23.975 8.54 12.459
722 1 1 0.0 24.345 7.468 11.332
723 1 1 0.0 18.833 1.852 9.142
724 1 1 0.0 20.037 2.814 8.86
725 1 1 0.0 19.426 4.755 10.981
726 1 1 0.0 18.412 5.9 10.65
727 1 1 0.0 21.277 6.91 7.992
728 1 1 0.0 22.483 5.946 7.718
729 1 1 0.0 23.552 3.43 11.834
730 1 1 0.0 22.537 2.286 12.162
731 1 1 0.0 16.971 3.369 9.499
732 1 1 0.0 17.342 4.439 8.371
733 1 1 0.0 21.891 0.657 9.845
734 1 1 0.0 22.901 1.805 10.177
735 1 1 0.0 18.775 6.381 8.664
736 1 1 0.0 17.765 7.53 8.992
737 1 1 0.0 21.476 3.745 10.479
738 1 1 0.0 21.105 4.82 9.354
739 1 1 0.0 24.169 5.373 9.982
740 1 1 0.0 22.969 6.341 9.703
741 1 1 0.0 18.348 2.248 11.127
742 1 1 0.0 17.144 1.281 10.852
743 1 1 0.0 19.84 -0.357 10.347
744 1 1 0.0 20.21 0.717 11.472
745 1 2 0.0 24.719 8.201 11.892
746 1 2 0.0 19.498 2.09 8.439
747 1 2 0.0 18.646 5.241 11.364
748 1 2 0.0 21.815 6.187 8.418
749 1 2 0.0 22.772 2.946 11.449
750 1 2 0.0 16.6 4.1 8.936
751 1 2 0.0 22.668 1.145 9.462
752 1 2 0.0 18.543 7.042 9.377
753 1 2 0.0 20.734 4.088 9.915
754 1 2 0.0 23.635 6.101 10.405
755 1 2 0.0 17.679 2.007 10.427
756 1 2 0.0 20.583 -0.015 10.912
757 1 1 0.0 7.449 16.738 12.449
758 1 1 0.0 7.819 15.666 11.322
759 1 1 0.0 2.307 10.05 9.132
760 1 1 0.0 3.511 11.012 8.85
761 1 1 0.0 2.9 12.953 10.971
762 1 1 0.0 1.886 14.098 10.64
763 1 1 0.0 4.751 15.107 7.982
764 1 1 0.0 5.957 14.144 7.708
765 1 1 0.0 7.026 11.628 11.824
766 1 1 0.0 6.011 10.484 12.152
767 1 1 0.0 0.445 11.567 9.489
768 1 1 0.0 0.816 12.637 8.361
769 1 1 0.0 5.365 8.855 9.835
770 1 1 0.0 6.375 10.003 10.167
771 1 1 0.0 2.249 14.579 8.654
772 1 1 0.0 1.239 15.728 8.982
773 1 1 0.0 4.95 11.943 10.468
774 1 1 0.0 4.579 13.018 9.344
775 1 1 0.0 7.643 13.571 9.972
776 1 1 0.0 6.443 14.539 9.693
777 1 1 0.0 1.822 10.446 11.117
778 1 1 0.0 0.618 9.479 10.842
779 1 1 0.0 3.314 7.84 10.337
780 1 1 0.0 3.684 8.915 11.462
781 1 2 0.0 8.193 16.398 11.882
782 1 2 0.0 2.972 10.288 8.429
783 1 2 0.0 2.12 13.439 11.354
784 1 2 0.0 5.289 14.385 8.408
785 1 2 0.0 6.246 11.144 11.439
786 1 2 0.0 0.074 12.298 8.926
787 1 2 0.0 6.142 9.343 9.452
788 1 2 0.0 2.017 15.24 9.367
789 1 2 0.0 4.208 12.286 9.905
790 1 2 0.0 7.109 14.299 10.395
791 1 2 0.0 1.153 10.205 10.417
792 1 2 0.0 4.057 8.183 10.902
793 1 1 0.0 15.712 16.736 12.45
794 1 1 0.0 16.082 15.664 11.323
795 1 1 0.0 10.57 10.049 9.133
796 1 1 0.0 11.774 11.01 8.852
797 1 1 0.0 11.163 12.952 10.972
798 1 1 0.0 10.149 14.097 10.642
799 1 1 0.0 13.014 15.106 7.983
800 1 1 0.0 14.22 14.142 7.709
801 1 1 0.0 15.289 11.627 11.826
802 1 1 0.0 14.274 10.482 12.153
803 1 1 0.0 8.708 11.566 9.49
804 1 1 0.0 9.079 12.636 8.363
805 1 1 0.0 13.628 8.853 9.837
806 1 1 0.0 14.638 10.001 10.168
807 1 1 0.0 10.512 14.577 8.655
808 1 1 0.0 9.502 15.726 8.984
809 1 1 0.0 13.213 11.942 10.47
810 1 1 0.0 12.842 13.016 9.345
811 1 1 0.0 15.906 13.57 9.974
812 1 1 0.0 14.706 14.538 9.694
813 1 1 0.0 10.085 10.444 11.118
814 1 1 0.0 8.881 9.478 10.843
815 1 1 0.0 11.577 7.839 10.338
816 1 1 0.0 11.947 8.913 11.463
817 1 2 0.0 16.456 16.397 11.884
818 1 2 0.0 11.235 10.287 8.43
819 1 2 0.0 10.383 13.437 11.355
820 1 2 0.0 13.552 14.383 8.41
821 1 2 0.0 14.509 11.143 11.441
822 1 2 0.0 8.337 12.297 8.928
823 1 2 0.0 14.405 9.341 9.453
824 1 2 0.0 10.28 15.238 9.368
825 1 2 0.0 12.471 12.285 9.907
826 1 2 0.0 15.372 14.298 10.396
827 1 2 0.0 9.416 10.204 10.419
828 1 2 0.0 12.32 8.181 10.903
829 1 1 0.0 23.975 16.735 12.452
830 1 1 0.0 24.345 15.663 11.325
831 1 1 0.0 18.833 10.047 9.134
832 1 1 0.0 20.037 11.009 8.853
833 1 1 0.0 19.426 12.95 10.974
834 1 1 0.0 18.412 14.095 10.643
835 1 1 0.0 21.277 15.105 7.984
836 1 1 0.0 22.483 14.141 7.711
837 1 1 0.0 23.552 11.625 11.827
838 1 1 0.0 22.537 10.481 12.155
839 1 1 0.0 16.971 11.564 9.492
840 1 1 0.0 17.342 12.634 8.364
841 1 1 0.0 21.891 8.852 9.838
842 1 1 0.0 22.901 10.0 10.169
843 1 1 0.0 18.775 14.576 8.656
844 1 1 0.0 17.765 15.725 8.985
845 1 1 0.0 21.476 11.94 10.471
846 1 1 0.0 21.105 13.015 9.347
847 1 1 0.0 24.169 13.568 9.975
848 1 1 0.0 22.969 14.536 9.695
849 1 1 0.0 18.348 10.443 11.12
850 1 1 0.0 17.144 9.476 10.845
851 1 1 0.0 19.84 7.838 10.34
852 1 1 0.0 20.21 8.912 11.465
853 1 2 0.0 24.719 16.396 11.885
854 1 2 0.0 19.498 10.285 8.431
855 1 2 0.0 18.646 13.436 11.357
856 1 2 0.0 21.815 14.382 8.411
857 1 2 0.0 22.772 11.141 11.442
858 1 2 0.0 16.6 12.295 8.929
859 1 2 0.0 22.668 9.34 9.455
860 1 2 0.0 18.543 15.237 9.37
861 1 2 0.0 20.734 12.283 9.908
862 1 2 0.0 23.635 14.296 10.397
863 1 2 0.0 17.679 10.202 10.42
864 1 2 0.0 20.583 8.18 10.905
865 1 1 0.0 7.449 24.933 12.441
866 1 1 0.0 7.819 23.861 11.315
867 1 1 0.0 2.307 18.245 9.124
868 1 1 0.0 3.511 19.207 8.843
869 1 1 0.0 2.9 21.148 10.964
870 1 1 0.0 1.886 22.293 10.633
871 1 1 0.0 4.751 23.302 7.974
872 1 1 0.0 5.957 22.339 7.701
873 1 1 0.0 7.026 19.823 11.817
874 1 1 0.0 6.011 18.679 12.145
875 1 1 0.0 0.445 19.762 9.482
876 1 1 0.0 0.816 20.832 8.354
877 1 1 0.0 5.365 17.05 9.828
878 1 1 0.0 6.375 18.198 10.159
879 1 1 0.0 2.249 22.774 8.646
880 1 1 0.0 1.239 23.923 8.975
881 1 1 0.0 4.95 20.138 10.461
882 1 1 0.0 4.579 21.213 9.336
883 1 1 0.0 7.643 21.766 9.965
884 1 1 0.0 6.443 22.734 9.685
885 1 1 0.0 1.822 18.641 11.11
886 1 1 0.0 0.618 17.674 10.835
887 1 1 0.0 3.314 16.035 10.33
888 1 1 0.0 3.684 17.11 11.455
889 1 2 0.0 8.193 24.593 11.875
890 1 2 0.0 2.972 18.483 8.421
891 1 2 0.0 2.12 21.634 11.347
892 1 2 0.0 5.289 22.58 8.401
893 1 2 0.0 6.246 19.339 11.432
894 1 2 0.0 0.074 20.493 8.919
895 1 2 0.0 6.142 17.538 9.445
896 1 2 0.0 2.017 23.435 9.36
897 1 2 0.0 4.208 20.481 9.898
898 1 2 0.0 7.109 22.494 10.387
899 1 2 0.0 1.153 18.4 10.41
900 1 2 0.0 4.057 16.378 10.894
901 1 1 0.0 15.712 24.931 12.443
902 1 1 0.0 16.082 23.859 11.316
903 1 1 0.0 10.57 18.243 9.126
904 1 1 0.0 11.774 19.205 8.844
905 1 1 0.0 11.163 21.147 10.965
906 1 1 0.0 10.149 22.292 10.635
907 1 1 0.0 13.014 23.301 7.976
908 1 1 0.0 14.22 22.337 7.702
909 1 1 0.0 15.289 19.822 11.819
910 1 1 0.0 14.274 18.677 12.146
911 1 1 0.0 8.708 19.761 9.483
912 1 1 0.0 9.079 20.831 8.355
913 1 1 0.0 13.628 17.048 9.83
914 1 1 0.0 14.638 18.196 10.161
915 1 1 0.0 10.512 22.772 8.648
916 1 1 0.0 9.502 23.921 8.977
917 1 1 0.0 13.213 20.137 10.463
918 1 1 0.0 12.842 21.211 9.338
919 1 1 0.0 15.906 21.765 9.967
920 1 1 0.0 14.706 22.733 9.687
921 1 1 0.0 10.085 18.639 11.111
922 1 1 0.0 8.881 17.673 10.836
923 1 1 0.0 11.577 16.034 10.331
924 1 1 0.0 11.947 17.108 11.456
925 1 2 0.0 16.456 24.592 11.876
926 1 2 0.0 11.235 18.482 8.423
927 1 2 0.0 10.383 21.632 11.348
928 1 2 0.0 13.552 22.578 8.403
929 1 2 0.0 14.509 19.338 11.434
930 1 2 0.0 8.337 20.492 8.92
931 1 2 0.0 14.405 17.536 9.446
932 1 2 0.0 10.28 23.433 9.361
933 1 2 0.0 12.471 20.48 9.899
934 1 2 0.0 15.372 22.493 10.389
935 1 2 0.0 9.416 18.399 10.412
936 1 2 0.0 12.32 16.376 10.896
937 1 1 0.0 23.975 24.93 12.444
938 1 1 0.0 24.345 23.858 11.318
939 1 1 0.0 18.833 18.242 9.127
940 1 1 0.0 20.037 19.204 8.846
941 1 1 0.0 19.426 21.145 10.967
942 1 1 0.0 18.412 22.29 10.636
943 1 1 0.0 21.277 23.3 7.977
944 1 1 0.0 22.483 22.336 7.703
945 1 1 0.0 23.552 19.82 11.82
946 1 1 0.0 22.537 18.676 12.148
947 1 1 0.0 16.971 19.759 9.485
948 1 1 0.0 17.342 20.829 8.357
949 1 1 0.0 21.891 17.047 9.831
950 1 1 0.0 22.901 18.195 10.162
951 1 1 0.0 18.775 22.771 8.649
952 1 1 0.0 17.765 23.92 8.978
953 1 1 0.0 21.476 20.135 10.464
954 1 1 0.0 21.105 21.21 9.339
955 1 1 0.0 24.169 21.763 9.968
956 1 1 0.0 22.969 22.731 9.688
957 1 1 0.0 18.348 18.638 11.113
958 1 1 0.0 17.144 17.671 10.838
959 1 1 0.0 19.84 16.033 10.333
960 1 1 0.0 20.21 17.107 11.458
961 1 2 0.0 24.719 24.591 11.878
962 1 2 0.0 19.498 18.48 8.424