# LAMMPS data file written by OVITO Basic 3.5.4
1632 atoms
1088 bonds
2 atom types
1 bond types
-0.334 34.566 xlo xhi
-0.324 34.566 ylo yhi
-0.324 17.455 zlo zhi

Masses

1 1.00794  # H
2 15.9994  # O

Atoms  # full

1 1 2 0.0 9.697 14.962 9.697
2 1 1 0.0 10.375 14.929 10.375
3 1 1 0.0 9.506 14.044 9.506
4 1 2 0.0 11.685 6.379 3.06
5 1 1 0.0 11.322 6.741 3.868
6 1 1 0.0 11.897 5.472 3.275
7 1 2 0.0 5.436 15.9 2.099
8 1 1 0.0 5.224 16.116 1.192
9 1 1 0.0 5.799 16.708 2.46
10 1 2 0.0 15.9 10.742 7.405
11 1 1 0.0 16.708 10.38 7.042
12 1 1 0.0 16.116 11.649 7.617
13 1 2 0.0 16.017 15.948 2.233
14 1 1 0.0 15.316 15.298 2.217
15 1 1 0.0 15.621 16.737 1.864
16 1 2 0.0 6.379 11.685 3.06
17 1 1 0.0 6.741 11.322 3.868
18 1 1 0.0 5.472 11.897 3.275
19 1 2 0.0 5.475 10.579 7.365
20 1 1 0.0 4.669 11.022 7.102
21 1 1 0.0 5.739 11.022 8.172
22 1 2 0.0 14.061 7.405 2.099
23 1 1 0.0 13.253 7.042 2.46
24 1 1 0.0 13.846 7.617 1.192
25 1 2 0.0 14.981 6.42 15.046
26 1 1 0.0 14.445 5.884 14.46
27 1 1 0.0 15.517 6.956 14.46
28 1 2 0.0 5.501 10.742 13.996
29 1 1 0.0 5.285 11.649 13.784
30 1 1 0.0 4.693 10.38 14.359
31 1 2 0.0 7.34 2.099 13.996
32 1 1 0.0 8.148 2.46 14.359
33 1 1 0.0 7.555 1.192 13.784
34 1 2 0.0 3.758 3.69 12.25
35 1 1 0.0 3.523 4.604 12.094
36 1 1 0.0 3.523 3.534 13.164
37 1 2 0.0 10.822 7.365 15.926
38 1 1 0.0 10.379 7.102 16.732
39 1 1 0.0 10.379 8.172 15.662
40 1 2 0.0 10.682 7.424 5.417
41 1 1 0.0 9.764 7.615 5.225
42 1 1 0.0 10.649 6.746 6.095
43 1 2 0.0 2.181 13.996 14.061
44 1 1 0.0 1.82 14.359 13.253
45 1 1 0.0 3.089 13.784 13.846
46 1 2 0.0 4.785 13.346 13.409
47 1 1 0.0 5.011 13.572 12.507
48 1 1 0.0 5.345 13.906 13.947
49 1 2 0.0 7.456 7.388 2.233
50 1 1 0.0 6.756 6.737 2.217
51 1 1 0.0 7.061 8.177 1.864
52 1 2 0.0 3.69 0.591 9.083
53 1 1 0.0 3.534 -0.324 9.317
54 1 1 0.0 4.604 0.746 9.317
55 1 2 0.0 10.66 13.996 15.9
56 1 1 0.0 11.021 14.359 16.708
57 1 1 0.0 9.752 13.784 16.116
58 1 2 0.0 3.107 15.073 9.665
59 1 1 0.0 2.457 15.058 10.365
60 1 1 0.0 3.897 14.705 10.06
61 1 2 0.0 3.143 1.137 6.439
62 1 1 0.0 2.465 1.815 6.472
63 1 1 0.0 3.335 0.945 7.357
64 1 2 0.0 8.038 7.97 4.871
65 1 1 0.0 7.804 8.884 5.027
66 1 1 0.0 7.804 7.814 3.957
67 1 2 0.0 15.9 2.099 5.436
68 1 1 0.0 16.116 1.192 5.224
69 1 1 0.0 16.708 2.46 5.799
70 1 2 0.0 14.916 14.981 6.42
71 1 1 0.0 15.501 15.517 5.884
72 1 1 0.0 15.501 14.445 6.956
73 1 2 0.0 2.159 7.424 7.424
74 1 1 0.0 2.191 6.746 6.746
75 1 1 0.0 3.077 7.615 7.615
76 1 2 0.0 3.107 14.888 3.176
77 1 1 0.0 2.457 14.904 2.476
78 1 1 0.0 3.897 15.257 2.78
79 1 2 0.0 7.365 15.926 10.822
80 1 1 0.0 8.172 15.662 10.379
81 1 1 0.0 7.102 16.732 10.379
82 1 2 0.0 2.121 5.417 15.984
83 1 1 0.0 1.204 5.225 16.176
84 1 1 0.0 2.089 6.095 15.306
85 1 2 0.0 11.704 1.137 15.0
86 1 1 0.0 11.896 0.945 15.917
87 1 1 0.0 11.026 1.815 15.032
88 1 2 0.0 13.996 14.061 2.181
89 1 1 0.0 14.359 13.253 1.82
90 1 1 0.0 13.784 13.846 3.089
91 1 2 0.0 15.102 1.195 11.646
92 1 1 0.0 14.659 1.459 12.452
93 1 1 0.0 14.659 0.389 11.382
94 1 2 0.0 16.53 16.599 4.871
95 1 1 0.0 16.375 16.364 3.957
96 1 1 0.0 17.445 16.364 5.027
97 1 2 0.0 1.156 11.62 15.022
98 1 1 0.0 0.943 11.836 15.929
99 1 1 0.0 1.519 12.428 14.661
100 1 2 0.0 12.25 12.319 12.25
101 1 1 0.0 12.094 12.084 13.164
102 1 1 0.0 13.164 12.084 12.094
103 1 2 0.0 14.94 3.125 3.06
104 1 1 0.0 15.301 2.762 3.868
105 1 1 0.0 14.032 3.337 3.275
106 1 2 0.0 9.129 9.066 12.336
107 1 1 0.0 9.667 9.625 11.776
108 1 1 0.0 8.227 9.292 12.11
109 1 2 0.0 11.685 14.94 11.62
110 1 1 0.0 11.897 14.032 11.836
111 1 1 0.0 11.322 15.301 12.428
112 1 2 0.0 1.221 15.022 11.685
113 1 1 0.0 0.413 14.661 11.322
114 1 1 0.0 1.005 15.929 11.897
115 1 2 0.0 9.716 6.461 11.62
116 1 1 0.0 10.079 6.1 12.428
117 1 1 0.0 9.504 7.369 11.836
118 1 2 0.0 5.475 5.475 2.262
119 1 1 0.0 4.669 5.739 1.818
120 1 1 0.0 5.739 4.669 1.818
121 1 2 0.0 5.501 2.181 5.436
122 1 1 0.0 4.693 1.82 5.799
123 1 1 0.0 5.285 3.089 5.224
124 1 2 0.0 2.099 7.405 14.061
125 1 1 0.0 2.46 7.042 13.253
126 1 1 0.0 1.192 7.617 13.846
127 1 2 0.0 14.888 1.104 1.173
128 1 1 0.0 14.904 1.805 1.823
129 1 1 0.0 15.257 1.5 0.384
130 1 2 0.0 1.156 1.221 14.94
131 1 1 0.0 1.519 0.413 15.301
132 1 1 0.0 0.943 1.005 14.032
133 1 2 0.0 15.073 3.176 9.733
134 1 1 0.0 14.705 2.78 8.944
135 1 1 0.0 15.058 2.476 10.384
136 1 2 0.0 4.785 4.785 4.849
137 1 1 0.0 5.345 5.345 5.386
138 1 1 0.0 5.011 5.011 3.946
139 1 2 0.0 6.328 9.665 1.173
140 1 1 0.0 6.696 10.06 0.384
141 1 1 0.0 6.343 10.365 1.823
142 1 2 0.0 2.075 10.701 2.14
143 1 1 0.0 2.661 11.236 2.676
144 1 1 0.0 2.661 10.165 1.604
145 1 2 0.0 14.888 11.736 11.668
146 1 1 0.0 15.257 11.341 12.457
147 1 1 0.0 14.904 11.036 11.017
148 1 2 0.0 16.599 7.97 13.431
149 1 1 0.0 16.364 7.814 12.517
150 1 1 0.0 16.364 8.884 13.587
151 1 2 0.0 11.736 11.668 14.888
152 1 1 0.0 11.341 12.457 15.257
153 1 1 0.0 11.036 11.017 14.904
154 1 2 0.0 11.704 6.439 9.697
155 1 1 0.0 11.026 6.472 10.375
156 1 1 0.0 11.896 7.357 9.506
157 1 2 0.0 8.055 13.346 16.553
158 1 1 0.0 7.829 13.572 17.455
159 1 1 0.0 7.496 13.906 16.015
160 1 2 0.0 1.156 3.06 6.461
161 1 1 0.0 1.519 3.868 6.1
162 1 1 0.0 0.943 3.275 7.369
163 1 2 0.0 5.417 7.424 10.682
164 1 1 0.0 6.095 6.746 10.649
165 1 1 0.0 5.225 7.615 9.764
166 1 2 0.0 7.424 10.719 15.984
167 1 1 0.0 6.746 10.752 15.306
168 1 1 0.0 7.615 11.637 16.176
169 1 2 0.0 9.066 3.712 0.505
170 1 1 0.0 9.292 4.614 0.731
171 1 1 0.0 9.625 3.174 1.065
172 1 2 0.0 10.793 16.017 7.388
173 1 1 0.0 10.778 15.316 6.737
174 1 1 0.0 10.425 15.621 8.177
175 1 2 0.0 7.456 14.014 2.048
176 1 1 0.0 7.061 13.224 2.416
177 1 1 0.0 6.756 14.664 2.063
178 1 2 0.0 12.336 3.775 3.712
179 1 1 0.0 11.776 3.215 3.174
180 1 1 0.0 12.11 3.549 4.614
181 1 2 0.0 9.733 6.328 1.104
182 1 1 0.0 10.384 6.343 1.805
183 1 1 0.0 8.944 6.696 1.5
184 1 2 0.0 3.176 11.668 6.328
185 1 1 0.0 2.476 11.017 6.343
186 1 1 0.0 2.78 12.457 6.696
187 1 2 0.0 11.646 3.085 6.299
188 1 1 0.0 11.382 3.892 6.742
189 1 1 0.0 12.452 2.822 6.742
190 1 2 0.0 1.173 6.513 3.176
191 1 1 0.0 0.384 6.145 2.78
192 1 1 0.0 1.823 6.497 2.476
193 1 2 0.0 16.017 5.453 2.048
194 1 1 0.0 15.316 6.104 2.063
195 1 1 0.0 15.621 4.664 2.416
196 1 2 0.0 1.156 9.781 6.379
197 1 1 0.0 1.519 8.973 6.741
198 1 1 0.0 0.943 9.565 5.472
199 1 2 0.0 16.616 4.785 16.553
200 1 1 0.0 16.39 5.011 17.455
201 1 1 0.0 16.056 5.345 16.015
202 1 2 0.0 9.151 0.522 3.69
203 1 1 0.0 8.237 0.757 3.534
204 1 1 0.0 9.307 0.757 4.604
205 1 2 0.0 13.945 10.793 5.453
206 1 1 0.0 14.645 10.778 6.104
207 1 1 0.0 14.341 10.425 4.664
208 1 2 0.0 6.328 1.104 9.733
209 1 1 0.0 6.696 1.5 8.944
210 1 1 0.0 6.343 1.805 10.384
211 1 2 0.0 2.181 5.436 5.501
212 1 1 0.0 3.089 5.224 5.285
213 1 1 0.0 1.82 5.799 4.693
214 1 2 0.0 14.859 9.756 9.756
215 1 1 0.0 15.303 10.019 8.949
216 1 1 0.0 15.303 8.949 10.019
217 1 2 0.0 15.9 2.181 15.965
218 1 1 0.0 16.116 3.089 16.178
219 1 1 0.0 16.708 1.82 15.602
220 1 2 0.0 6.355 6.42 6.42
221 1 1 0.0 6.941 5.884 6.956
222 1 1 0.0 6.941 6.956 5.884
223 1 2 0.0 4.871 16.53 16.599
224 1 1 0.0 3.957 16.375 16.364
225 1 1 0.0 5.027 17.445 16.364
226 1 2 0.0 3.107 6.328 11.736
227 1 1 0.0 2.457 6.343 11.036
228 1 1 0.0 3.897 6.696 11.341
229 1 2 0.0 14.061 15.965 10.66
230 1 1 0.0 13.253 15.602 11.021
231 1 1 0.0 13.846 16.178 9.752
232 1 2 0.0 6.42 14.916 14.981
233 1 1 0.0 5.884 15.501 15.517
234 1 1 0.0 6.956 15.501 14.445
235 1 2 0.0 14.061 10.66 15.965
236 1 1 0.0 13.253 11.021 15.602
237 1 1 0.0 13.846 9.752 16.178
238 1 2 0.0 10.701 2.205 2.14
239 1 1 0.0 11.236 1.62 1.604
240 1 1 0.0 10.165 1.62 2.676
241 1 2 0.0 10.636 10.701 10.701
242 1 1 0.0 11.221 10.165 10.165
243 1 1 0.0 11.221 11.236 11.236
244 1 2 0.0 3.176 9.733 15.073
245 1 1 0.0 2.78 8.944 14.705
246 1 1 0.0 2.476 10.384 15.058
247 1 2 0.0 9.665 11.668 6.513
248 1 1 0.0 10.365 11.017 6.497
249 1 1 0.0 10.06 12.457 6.145
250 1 2 0.0 13.409 16.616 8.055
251 1 1 0.0 13.947 16.056 7.496
252 1 1 0.0 12.507 16.39 7.829
253 1 2 0.0 2.019 15.926 5.475
254 1 1 0.0 2.462 16.732 5.739
255 1 1 0.0 2.462 15.662 4.669
256 1 2 0.0 3.176 3.107 14.888
257 1 1 0.0 2.78 3.897 15.257
258 1 1 0.0 2.476 2.457 14.904
259 1 2 0.0 6.513 1.104 3.107
260 1 1 0.0 6.497 1.805 2.457
261 1 1 0.0 6.145 1.5 3.897
262 1 2 0.0 15.073 11.736 1.173
263 1 1 0.0 15.058 11.036 1.823
264 1 1 0.0 14.705 11.341 0.384
265 1 2 0.0 13.409 8.055 16.616
266 1 1 0.0 12.507 7.829 16.39
267 1 1 0.0 13.947 7.496 16.056
268 1 2 0.0 12.25 9.083 9.151
269 1 1 0.0 12.094 9.317 8.237
270 1 1 0.0 13.164 9.317 9.307
271 1 2 0.0 15.948 10.608 13.945
272 1 1 0.0 16.737 10.976 14.341
273 1 1 0.0 15.298 10.624 14.645
274 1 2 0.0 1.156 6.379 9.781
275 1 1 0.0 1.519 6.741 8.973
276 1 1 0.0 0.943 5.472 9.565
277 1 2 0.0 3.758 12.25 3.69
278 1 1 0.0 3.523 12.094 4.604
279 1 1 0.0 3.523 13.164 3.534
280 1 2 0.0 11.668 15.073 1.104
281 1 1 0.0 12.457 14.705 1.5
282 1 1 0.0 11.017 15.058 1.805
283 1 2 0.0 13.978 2.121 7.424
284 1 1 0.0 14.656 2.089 6.746
285 1 1 0.0 13.786 1.204 7.615
286 1 2 0.0 16.53 13.363 7.97
287 1 1 0.0 16.375 13.597 8.884
288 1 1 0.0 17.445 13.597 7.814
289 1 2 0.0 10.719 5.417 13.978
290 1 1 0.0 11.637 5.225 13.786
291 1 1 0.0 10.752 6.095 14.656
292 1 2 0.0 7.365 5.475 10.579
293 1 1 0.0 7.102 4.669 11.022
294 1 1 0.0 8.172 5.739 11.022
295 1 2 0.0 5.453 2.048 16.017
296 1 1 0.0 6.104 2.063 15.316
297 1 1 0.0 4.664 2.416 15.621
298 1 2 0.0 8.038 4.871 7.97
299 1 1 0.0 7.804 5.027 8.884
300 1 1 0.0 7.804 3.957 7.814
301 1 2 0.0 2.233 16.017 15.948
302 1 1 0.0 2.217 15.316 15.298
303 1 1 0.0 1.864 15.621 16.737
304 1 2 0.0 0.568 12.336 0.505
305 1 1 0.0 1.106 11.776 1.065
306 1 1 0.0 -0.334 12.11 0.731
307 1 2 0.0 1.221 14.94 1.156
308 1 1 0.0 1.005 14.032 0.943
309 1 1 0.0 0.413 15.301 1.519
310 1 2 0.0 7.97 16.599 13.431
311 1 1 0.0 8.884 16.364 13.587
312 1 1 0.0 7.814 16.364 12.517
313 1 2 0.0 0.568 0.505 12.336
314 1 1 0.0 1.106 1.065 11.776
315 1 1 0.0 -0.334 0.731 12.11
316 1 2 0.0 15.948 7.456 10.793
317 1 1 0.0 16.737 7.061 10.425
318 1 1 0.0 15.298 6.756 10.778
319 1 2 0.0 7.388 2.233 7.456
320 1 1 0.0 6.737 2.217 6.756
321 1 1 0.0 8.177 1.864 7.061
322 1 2 0.0 16.017 14.014 10.608
323 1 1 0.0 15.621 13.224 10.976
324 1 1 0.0 15.316 14.664 10.624
325 1 2 0.0 4.785 7.992 8.055
326 1 1 0.0 5.011 8.894 7.829
327 1 1 0.0 5.345 7.454 7.496
328 1 2 0.0 10.608 15.948 13.945
329 1 1 0.0 10.976 16.737 14.341
330 1 1 0.0 10.624 15.298 14.645
331 1 2 0.0 6.379 3.125 11.62
332 1 1 0.0 5.472 3.337 11.836
333 1 1 0.0 6.741 2.762 12.428
334 1 2 0.0 9.066 12.336 9.129
335 1 1 0.0 9.625 11.776 9.667
336 1 1 0.0 9.292 12.11 8.227
337 1 2 0.0 6.542 9.756 11.646
338 1 1 0.0 6.098 10.019 12.452
339 1 1 0.0 6.098 8.949 11.382
340 1 2 0.0 6.461 3.125 1.221
341 1 1 0.0 7.369 3.337 1.005
342 1 1 0.0 6.1 2.762 0.413
343 1 2 0.0 14.014 2.233 13.945
344 1 1 0.0 13.224 1.864 14.341
345 1 1 0.0 14.664 2.217 14.645
346 1 2 0.0 12.25 0.591 0.522
347 1 1 0.0 13.164 0.746 0.757
348 1 1 0.0 12.094 -0.324 0.757
349 1 2 0.0 3.69 9.083 0.591
350 1 1 0.0 3.534 9.317 -0.324
351 1 1 0.0 4.604 9.317 0.746
352 1 2 0.0 6.439 11.704 9.697
353 1 1 0.0 7.357 11.896 9.506
354 1 1 0.0 6.472 11.026 10.375
355 1 2 0.0 9.716 3.06 15.022
356 1 1 0.0 9.504 3.275 15.929
357 1 1 0.0 10.079 3.868 14.661
358 1 2 0.0 0.568 3.775 9.066
359 1 1 0.0 1.106 3.215 9.625
360 1 1 0.0 -0.334 3.549 9.292
361 1 2 0.0 13.346 13.409 4.785
362 1 1 0.0 13.572 12.507 5.011
363 1 1 0.0 13.906 13.947 5.345
364 1 2 0.0 9.665 1.173 6.328
365 1 1 0.0 10.06 0.384 6.696
366 1 1 0.0 10.365 1.823 6.343
367 1 2 0.0 7.388 10.608 5.385
368 1 1 0.0 6.737 10.624 6.085
369 1 1 0.0 8.177 10.976 5.78
370 1 2 0.0 9.781 15.022 3.125
371 1 1 0.0 8.973 14.661 2.762
372 1 1 0.0 9.565 15.929 3.337
373 1 2 0.0 10.742 13.996 5.501
374 1 1 0.0 10.38 14.359 4.693
375 1 1 0.0 11.649 13.784 5.285
376 1 2 0.0 9.781 9.716 14.94
377 1 1 0.0 8.973 10.079 15.301
378 1 1 0.0 9.565 9.504 14.032
379 1 2 0.0 15.022 9.781 3.125
380 1 1 0.0 14.661 8.973 2.762
381 1 1 0.0 15.929 9.565 3.337
382 1 2 0.0 0.505 9.129 3.775
383 1 1 0.0 1.065 9.667 3.215
384 1 1 0.0 0.731 8.227 3.549
385 1 2 0.0 14.036 5.475 10.822
386 1 1 0.0 14.299 4.669 10.379
387 1 1 0.0 13.229 5.739 10.379
388 1 2 0.0 10.66 5.436 7.34
389 1 1 0.0 11.021 5.799 8.148
390 1 1 0.0 9.752 5.224 7.555
391 1 2 0.0 2.075 2.14 10.701
392 1 1 0.0 2.661 1.604 10.165
393 1 1 0.0 2.661 2.676 11.236
394 1 2 0.0 3.125 6.461 1.221
395 1 1 0.0 2.762 6.1 0.413
396 1 1 0.0 3.337 7.369 1.005
397 1 2 0.0 5.385 14.014 10.793
398 1 1 0.0 6.085 14.664 10.778
399 1 1 0.0 5.78 13.224 10.425
400 1 2 0.0 2.048 13.945 7.388
401 1 1 0.0 2.416 14.341 8.177
402 1 1 0.0 2.063 14.645 6.737
403 1 2 0.0 13.363 4.871 13.431
404 1 1 0.0 13.597 5.027 12.517
405 1 1 0.0 13.597 3.957 13.587
406 1 2 0.0 11.646 9.756 6.542
407 1 1 0.0 12.452 10.019 6.098
408 1 1 0.0 11.382 8.949 6.098
409 1 2 0.0 26.818 14.962 9.697
410 1 1 0.0 27.496 14.929 10.375
411 1 1 0.0 26.627 14.044 9.506
412 1 2 0.0 28.806 6.379 3.06
413 1 1 0.0 28.443 6.741 3.868
414 1 1 0.0 29.018 5.472 3.275
415 1 2 0.0 22.557 15.9 2.099
416 1 1 0.0 22.345 16.116 1.192
417 1 1 0.0 22.92 16.708 2.46
418 1 2 0.0 33.021 10.742 7.405
419 1 1 0.0 33.829 10.38 7.042
420 1 1 0.0 33.237 11.649 7.617
421 1 2 0.0 33.138 15.948 2.233
422 1 1 0.0 32.437 15.298 2.217
423 1 1 0.0 32.742 16.737 1.864
424 1 2 0.0 23.5 11.685 3.06
425 1 1 0.0 23.862 11.322 3.868
426 1 1 0.0 22.593 11.897 3.275
427 1 2 0.0 22.596 10.579 7.365
428 1 1 0.0 21.79 11.022 7.102
429 1 1 0.0 22.86 11.022 8.172
430 1 2 0.0 31.182 7.405 2.099
431 1 1 0.0 30.374 7.042 2.46
432 1 1 0.0 30.967 7.617 1.192
433 1 2 0.0 32.102 6.42 15.046
434 1 1 0.0 31.566 5.884 14.46
435 1 1 0.0 32.638 6.956 14.46
436 1 2 0.0 22.622 10.742 13.996
437 1 1 0.0 22.406 11.649 13.784
438 1 1 0.0 21.814 10.38 14.359
439 1 2 0.0 24.461 2.099 13.996
440 1 1 0.0 25.269 2.46 14.359
441 1 1 0.0 24.676 1.192 13.784
442 1 2 0.0 20.879 3.69 12.25
443 1 1 0.0 20.644 4.604 12.094
444 1 1 0.0 20.644 3.534 13.164
445 1 2 0.0 27.943 7.365 15.926
446 1 1 0.0 27.5 7.102 16.732
447 1 1 0.0 27.5 8.172 15.662
448 1 2 0.0 27.803 7.424 5.417
449 1 1 0.0 26.885 7.615 5.225
450 1 1 0.0 27.77 6.746 6.095
451 1 2 0.0 19.302 13.996 14.061
452 1 1 0.0 18.941 14.359 13.253
453 1 1 0.0 20.21 13.784 13.846
454 1 2 0.0 21.906 13.346 13.409
455 1 1 0.0 22.132 13.572 12.507
456 1 1 0.0 22.466 13.906 13.947
457 1 2 0.0 24.577 7.388 2.233
458 1 1 0.0 23.877 6.737 2.217
459 1 1 0.0 24.182 8.177 1.864
460 1 2 0.0 20.811 0.591 9.083
461 1 1 0.0 20.655 -0.324 9.317
462 1 1 0.0 21.725 0.746 9.317
463 1 2 0.0 27.78 13.996 15.9
464 1 1 0.0 28.142 14.359 16.708
465 1 1 0.0 26.873 13.784 16.116
466 1 2 0.0 20.228 15.073 9.665
467 1 1 0.0 19.578 15.058 10.365
468 1 1 0.0 21.018 14.705 10.06
469 1 2 0.0 20.264 1.137 6.439
470 1 1 0.0 19.586 1.815 6.472
471 1 1 0.0 20.456 0.945 7.357
472 1 2 0.0 25.159 7.97 4.871
473 1 1 0.0 24.925 8.884 5.027
474 1 1 0.0 24.925 7.814 3.957
475 1 2 0.0 33.021 2.099 5.436
476 1 1 0.0 33.237 1.192 5.224
477 1 1 0.0 33.829 2.46 5.799
478 1 2 0.0 32.037 14.981 6.42
479 1 1 0.0 32.622 15.517 5.884
480 1 1 0.0 32.622 14.445 6.956
481 1 2 0.0 19.28 7.424 7.424
482 1 1 0.0 19.312 6.746 6.746
483 1 1 0.0 20.198 7.615 7.615
484 1 2 0.0 20.228 14.888 3.176
485 1 1 0.0 19.578 14.904 2.476
486 1 1 0.0 21.018 15.257 2.78
487 1 2 0.0 24.486 15.926 10.822
488 1 1 0.0 25.293 15.662 10.379
489 1 1 0.0 24.223 16.732 10.379
490 1 2 0.0 19.242 5.417 15.984
491 1 1 0.0 18.325 5.225 16.176
492 1 1 0.0 19.21 6.095 15.306
493 1 2 0.0 28.825 1.137 15.0
494 1 1 0.0 29.017 0.945 15.917
495 1 1 0.0 28.147 1.815 15.032
496 1 2 0.0 31.117 14.061 2.181
497 1 1 0.0 31.48 13.253 1.82
498 1 1 0.0 30.905 13.846 3.089
499 1 2 0.0 32.223 1.195 11.646
500 1 1 0.0 31.78 1.459 12.452
501 1 1 0.0 31.78 0.389 11.382
502 1 2 0.0 33.651 16.599 4.871
503 1 1 0.0 33.495 16.364 3.957
504 1 1 0.0 34.566 16.364 5.027
505 1 2 0.0 18.277 11.62 15.022
506 1 1 0.0 18.064 11.836 15.929
507 1 1 0.0 18.64 12.428 14.661
508 1 2 0.0 29.371 12.319 12.25
509 1 1 0.0 29.215 12.084 13.164
510 1 1 0.0 30.285 12.084 12.094
511 1 2 0.0 32.061 3.125 3.06
512 1 1 0.0 32.422 2.762 3.868
513 1 1 0.0 31.153 3.337 3.275
514 1 2 0.0 26.25 9.066 12.336
515 1 1 0.0 26.787 9.625 11.776
516 1 1 0.0 25.348 9.292 12.11
517 1 2 0.0 28.806 14.94 11.62
518 1 1 0.0 29.018 14.032 11.836
519 1 1 0.0 28.443 15.301 12.428
520 1 2 0.0 18.342 15.022 11.685
521 1 1 0.0 17.534 14.661 11.322
522 1 1 0.0 18.126 15.929 11.897
523 1 2 0.0 26.837 6.461 11.62
524 1 1 0.0 27.2 6.1 12.428
525 1 1 0.0 26.625 7.369 11.836
526 1 2 0.0 22.596 5.475 2.262
527 1 1 0.0 21.79 5.739 1.818
528 1 1 0.0 22.86 4.669 1.818
529 1 2 0.0 22.622 2.181 5.436
530 1 1 0.0 21.814 1.82 5.799
531 1 1 0.0 22.406 3.089 5.224
532 1 2 0.0 19.22 7.405 14.061
533 1 1 0.0 19.581 7.042 13.253
534 1 1 0.0 18.313 7.617 13.846
535 1 2 0.0 32.009 1.104 1.173
536 1 1 0.0 32.025 1.805 1.823
537 1 1 0.0 32.377 1.5 0.384
538 1 2 0.0 18.277 1.221 14.94
539 1 1 0.0 18.64 0.413 15.301
540 1 1 0.0 18.064 1.005 14.032
541 1 2 0.0 32.194 3.176 9.733
542 1 1 0.0 31.826 2.78 8.944
543 1 1 0.0 32.179 2.476 10.384
544 1 2 0.0 21.906 4.785 4.849
545 1 1 0.0 22.466 5.345 5.386
546 1 1 0.0 22.132 5.011 3.946
547 1 2 0.0 23.449 9.665 1.173
548 1 1 0.0 23.817 10.06 0.384
549 1 1 0.0 23.464 10.365 1.823
550 1 2 0.0 19.196 10.701 2.14
551 1 1 0.0 19.782 11.236 2.676
552 1 1 0.0 19.782 10.165 1.604
553 1 2 0.0 32.009 11.736 11.668
554 1 1 0.0 32.377 11.341 12.457
555 1 1 0.0 32.025 11.036 11.017
556 1 2 0.0 33.72 7.97 13.431
557 1 1 0.0 33.485 7.814 12.517
558 1 1 0.0 33.485 8.884 13.587
559 1 2 0.0 28.857 11.668 14.888
560 1 1 0.0 28.462 12.457 15.257
561 1 1 0.0 28.157 11.017 14.904
562 1 2 0.0 28.825 6.439 9.697
563 1 1 0.0 28.147 6.472 10.375
564 1 1 0.0 29.017 7.357 9.506
565 1 2 0.0 25.176 13.346 16.553
566 1 1 0.0 24.95 13.572 17.455
567 1 1 0.0 24.617 13.906 16.015
568 1 2 0.0 18.277 3.06 6.461
569 1 1 0.0 18.64 3.868 6.1
570 1 1 0.0 18.064 3.275 7.369
571 1 2 0.0 22.538 7.424 10.682
572 1 1 0.0 23.216 6.746 10.649
573 1 1 0.0 22.346 7.615 9.764
574 1 2 0.0 24.545 10.719 15.984
575 1 1 0.0 23.867 10.752 15.306
576 1 1 0.0 24.736 11.637 16.176
577 1 2 0.0 26.187 3.712 0.505
578 1 1 0.0 26.413 4.614 0.731
579 1 1 0.0 26.746 3.174 1.065
580 1 2 0.0 27.914 16.017 7.388
581 1 1 0.0 27.899 15.316 6.737
582 1 1 0.0 27.546 15.621 8.177
583 1 2 0.0 24.577 14.014 2.048
584 1 1 0.0 24.182 13.224 2.416
585 1 1 0.0 23.877 14.664 2.063
586 1 2 0.0 29.457 3.775 3.712
587 1 1 0.0 28.897 3.215 3.174
588 1 1 0.0 29.231 3.549 4.614
589 1 2 0.0 26.854 6.328 1.104
590 1 1 0.0 27.505 6.343 1.805
591 1 1 0.0 26.065 6.696 1.5
592 1 2 0.0 20.297 11.668 6.328
593 1 1 0.0 19.597 11.017 6.343
594 1 1 0.0 19.901 12.457 6.696
595 1 2 0.0 28.767 3.085 6.299
596 1 1 0.0 28.503 3.892 6.742
597 1 1 0.0 29.573 2.822 6.742
598 1 2 0.0 18.294 6.513 3.176
599 1 1 0.0 17.504 6.145 2.78
600 1 1 0.0 18.944 6.497 2.476
601 1 2 0.0 33.138 5.453 2.048
602 1 1 0.0 32.437 6.104 2.063
603 1 1 0.0 32.742 4.664 2.416
604 1 2 0.0 18.277 9.781 6.379
605 1 1 0.0 18.64 8.973 6.741
606 1 1 0.0 18.064 9.565 5.472
607 1 2 0.0 33.737 4.785 16.553
608 1 1 0.0 33.511 5.011 17.455
609 1 1 0.0 33.177 5.345 16.015
610 1 2 0.0 26.272 0.522 3.69
611 1 1 0.0 25.358 0.757 3.534
612 1 1 0.0 26.428 0.757 4.604
613 1 2 0.0 31.066 10.793 5.453
614 1 1 0.0 31.766 10.778 6.104
615 1 1 0.0 31.462 10.425 4.664
616 1 2 0.0 23.449 1.104 9.733
617 1 1 0.0 23.817 1.5 8.944
618 1 1 0.0 23.464 1.805 10.384
619 1 2 0.0 19.302 5.436 5.501
620 1 1 0.0 20.21 5.224 5.285
621 1 1 0.0 18.941 5.799 4.693
622 1 2 0.0 31.98 9.756 9.756
623 1 1 0.0 32.424 10.019 8.949
624 1 1 0.0 32.424 8.949 10.019
625 1 2 0.0 33.021 2.181 15.965
626 1 1 0.0 33.237 3.089 16.178
627 1 1 0.0 33.829 1.82 15.602
628 1 2 0.0 23.476 6.42 6.42
629 1 1 0.0 24.062 5.884 6.956
630 1 1 0.0 24.062 6.956 5.884
631 1 2 0.0 21.992 16.53 16.599
632 1 1 0.0 21.078 16.375 16.364
633 1 1 0.0 22.148 17.445 16.364
634 1 2 0.0 20.228 6.328 11.736
635 1 1 0.0 19.578 6.343 11.036
636 1 1 0.0 21.018 6.696 11.341
637 1 2 0.0 31.182 15.965 10.66
638 1 1 0.0 30.374 15.602 11.021
639 1 1 0.0 30.967 16.178 9.752
640 1 2 0.0 23.541 14.916 14.981
641 1 1 0.0 23.005 15.501 15.517
642 1 1 0.0 24.077 15.501 14.445
643 1 2 0.0 31.182 10.66 15.965
644 1 1 0.0 30.374 11.021 15.602
645 1 1 0.0 30.967 9.752 16.178
646 1 2 0.0 27.822 2.205 2.14
647 1 1 0.0 28.357 1.62 1.604
648 1 1 0.0 27.286 1.62 2.676
649 1 2 0.0 27.757 10.701 10.701
650 1 1 0.0 28.342 10.165 10.165
651 1 1 0.0 28.342 11.236 11.236
652 1 2 0.0 20.297 9.733 15.073
653 1 1 0.0 19.901 8.944 14.705
654 1 1 0.0 19.597 10.384 15.058
655 1 2 0.0 26.786 11.668 6.513
656 1 1 0.0 27.486 11.017 6.497
657 1 1 0.0 27.181 12.457 6.145
658 1 2 0.0 30.53 16.616 8.055
659 1 1 0.0 31.068 16.056 7.496
660 1 1 0.0 29.628 16.39 7.829
661 1 2 0.0 19.14 15.926 5.475
662 1 1 0.0 19.583 16.732 5.739
663 1 1 0.0 19.583 15.662 4.669
664 1 2 0.0 20.297 3.107 14.888
665 1 1 0.0 19.901 3.897 15.257
666 1 1 0.0 19.597 2.457 14.904
667 1 2 0.0 23.634 1.104 3.107
668 1 1 0.0 23.618 1.805 2.457
669 1 1 0.0 23.266 1.5 3.897
670 1 2 0.0 32.194 11.736 1.173
671 1 1 0.0 32.179 11.036 1.823
672 1 1 0.0 31.826 11.341 0.384
673 1 2 0.0 30.53 8.055 16.616
674 1 1 0.0 29.628 7.829 16.39
675 1 1 0.0 31.068 7.496 16.056
676 1 2 0.0 29.371 9.083 9.151
677 1 1 0.0 29.215 9.317 8.237
678 1 1 0.0 30.285 9.317 9.307
679 1 2 0.0 33.069 10.608 13.945
680 1 1 0.0 33.858 10.976 14.341
681 1 1 0.0 32.419 10.624 14.645
682 1 2 0.0 18.277 6.379 9.781
683 1 1 0.0 18.64 6.741 8.973
684 1 1 0.0 18.064 5.472 9.565
685 1 2 0.0 20.879 12.25 3.69
686 1 1 0.0 20.644 12.094 4.604
687 1 1 0.0 20.644 13.164 3.534
688 1 2 0.0 28.789 15.073 1.104
689 1 1 0.0 29.578 14.705 1.5
690 1 1 0.0 28.138 15.058 1.805
691 1 2 0.0 31.099 2.121 7.424
692 1 1 0.0 31.777 2.089 6.746
693 1 1 0.0 30.907 1.204 7.615
694 1 2 0.0 33.651 13.363 7.97
695 1 1 0.0 33.495 13.597 8.884
696 1 1 0.0 34.566 13.597 7.814
697 1 2 0.0 27.84 5.417 13.978
698 1 1 0.0 28.758 5.225 13.786
699 1 1 0.0 27.873 6.095 14.656
700 1 2 0.0 24.486 5.475 10.579
701 1 1 0.0 24.223 4.669 11.022
702 1 1 0.0 25.293 5.739 11.022
703 1 2 0.0 22.574 2.048 16.017
704 1 1 0.0 23.225 2.063 15.316
705 1 1 0.0 21.785 2.416 15.621
706 1 2 0.0 25.159 4.871 7.97
707 1 1 0.0 24.925 5.027 8.884
708 1 1 0.0 24.925 3.957 7.814
709 1 2 0.0 19.354 16.017 15.948
710 1 1 0.0 19.338 15.316 15.298
711 1 1 0.0 18.985 15.621 16.737
712 1 2 0.0 17.689 12.336 0.505
713 1 1 0.0 18.227 11.776 1.065
714 1 1 0.0 16.787 12.11 0.731
715 1 2 0.0 18.342 14.94 1.156
716 1 1 0.0 18.126 14.032 0.943
717 1 1 0.0 17.534 15.301 1.519
718 1 2 0.0 25.091 16.599 13.431
719 1 1 0.0 26.005 16.364 13.587
720 1 1 0.0 24.935 16.364 12.517
721 1 2 0.0 17.689 0.505 12.336
722 1 1 0.0 18.227 1.065 11.776
723 1 1 0.0 16.787 0.731 12.11
724 1 2 0.0 33.069 7.456 10.793
725 1 1 0.0 33.858 7.061 10.425
726 1 1 0.0 32.419 6.756 10.778
727 1 2 0.0 24.509 2.233 7.456
728 1 1 0.0 23.858 2.217 6.756
729 1 1 0.0 25.298 1.864 7.061
730 1 2 0.0 33.138 14.014 10.608
731 1 1 0.0 32.742 13.224 10.976
732 1 1 0.0 32.437 14.664 10.624
733 1 2 0.0 21.906 7.992 8.055
734 1 1 0.0 22.132 8.894 7.829
735 1 1 0.0 22.466 7.454 7.496
736 1 2 0.0 27.729 15.948 13.945
737 1 1 0.0 28.097 16.737 14.341
738 1 1 0.0 27.745 15.298 14.645
739 1 2 0.0 23.5 3.125 11.62
740 1 1 0.0 22.593 3.337 11.836
741 1 1 0.0 23.862 2.762 12.428
742 1 2 0.0 26.187 12.336 9.129
743 1 1 0.0 26.746 11.776 9.667
744 1 1 0.0 26.413 12.11 8.227
745 1 2 0.0 23.663 9.756 11.646
746 1 1 0.0 23.219 10.019 12.452
747 1 1 0.0 23.219 8.949 11.382
748 1 2 0.0 23.582 3.125 1.221
749 1 1 0.0 24.49 3.337 1.005
750 1 1 0.0 23.221 2.762 0.413
751 1 2 0.0 31.134 2.233 13.945
752 1 1 0.0 30.345 1.864 14.341
753 1 1 0.0 31.785 2.217 14.645
754 1 2 0.0 29.371 0.591 0.522
755 1 1 0.0 30.285 0.746 0.757
756 1 1 0.0 29.215 -0.324 0.757
757 1 2 0.0 20.811 9.083 0.591
758 1 1 0.0 20.655 9.317 -0.324
759 1 1 0.0 21.725 9.317 0.746
760 1 2 0.0 23.56 11.704 9.697
761 1 1 0.0 24.478 11.896 9.506
762 1 1 0.0 23.593 11.026 10.375
763 1 2 0.0 26.837 3.06 15.022
764 1 1 0.0 26.625 3.275 15.929
765 1 1 0.0 27.2 3.868 14.661
766 1 2 0.0 17.689 3.775 9.066
767 1 1 0.0 18.227 3.215 9.625
768 1 1 0.0 16.787 3.549 9.292
769 1 2 0.0 30.467 13.409 4.785
770 1 1 0.0 30.693 12.507 5.011
771 1 1 0.0 31.027 13.947 5.345
772 1 2 0.0 26.786 1.173 6.328
773 1 1 0.0 27.181 0.384 6.696
774 1 1 0.0 27.486 1.823 6.343
775 1 2 0.0 24.509 10.608 5.385
776 1 1 0.0 23.858 10.624 6.085
777 1 1 0.0 25.298 10.976 5.78
778 1 2 0.0 26.902 15.022 3.125
779 1 1 0.0 26.094 14.661 2.762
780 1 1 0.0 26.686 15.929 3.337
781 1 2 0.0 27.863 13.996 5.501
782 1 1 0.0 27.501 14.359 4.693
783 1 1 0.0 28.77 13.784 5.285
784 1 2 0.0 26.902 9.716 14.94
785 1 1 0.0 26.094 10.079 15.301
786 1 1 0.0 26.686 9.504 14.032
787 1 2 0.0 32.143 9.781 3.125
788 1 1 0.0 31.782 8.973 2.762
789 1 1 0.0 33.05 9.565 3.337
790 1 2 0.0 17.626 9.129 3.775
791 1 1 0.0 18.186 9.667 3.215
792 1 1 0.0 17.852 8.227 3.549
793 1 2 0.0 31.157 5.475 10.822
794 1 1 0.0 31.42 4.669 10.379
795 1 1 0.0 30.35 5.739 10.379
796 1 2 0.0 27.78 5.436 7.34
797 1 1 0.0 28.142 5.799 8.148
798 1 1 0.0 26.873 5.224 7.555
799 1 2 0.0 19.196 2.14 10.701
800 1 1 0.0 19.782 1.604 10.165
801 1 1 0.0 19.782 2.676 11.236
802 1 2 0.0 20.246 6.461 1.221
803 1 1 0.0 19.883 6.1 0.413
804 1 1 0.0 20.458 7.369 1.005
805 1 2 0.0 22.506 14.014 10.793
806 1 1 0.0 23.206 14.664 10.778
807 1 1 0.0 22.901 13.224 10.425
808 1 2 0.0 19.169 13.945 7.388
809 1 1 0.0 19.537 14.341 8.177
810 1 1 0.0 19.184 14.645 6.737
811 1 2 0.0 30.484 4.871 13.431
812 1 1 0.0 30.718 5.027 12.517
813 1 1 0.0 30.718 3.957 13.587
814 1 2 0.0 28.767 9.756 6.542
815 1 1 0.0 29.573 10.019 6.098
816 1 1 0.0 28.503 8.949 6.098
817 1 2 0.0 9.697 32.083 9.697
818 1 1 0.0 10.375 32.05 10.375
819 1 1 0.0 9.506 31.165 9.506
820 1 2 0.0 11.685 23.5 3.06
821 1 1 0.0 11.322 23.862 3.868
822 1 1 0.0 11.897 22.593 3.275
823 1 2 0.0 5.436 33.021 2.099
824 1 1 0.0 5.224 33.237 1.192
825 1 1 0.0 5.799 33.829 2.46
826 1 2 0.0 15.9 27.863 7.405
827 1 1 0.0 16.708 27.501 7.042
828 1 1 0.0 16.116 28.77 7.617
829 1 2 0.0 16.017 33.069 2.233
830 1 1 0.0 15.316 32.419 2.217
831 1 1 0.0 15.621 33.858 1.864
832 1 2 0.0 6.379 28.806 3.06
833 1 1 0.0 6.741 28.443 3.868
834 1 1 0.0 5.472 29.018 3.275
835 1 2 0.0 5.475 27.7 7.365
836 1 1 0.0 4.669 28.143 7.102
837 1 1 0.0 5.739 28.143 8.172
838 1 2 0.0 14.061 24.526 2.099
839 1 1 0.0 13.253 24.163 2.46
840 1 1 0.0 13.846 24.738 1.192
841 1 2 0.0 14.981 23.541 15.046
842 1 1 0.0 14.445 23.005 14.46
843 1 1 0.0 15.517 24.077 14.46
844 1 2 0.0 5.501 27.863 13.996
845 1 1 0.0 5.285 28.77 13.784
846 1 1 0.0 4.693 27.501 14.359
847 1 2 0.0 7.34 19.22 13.996
848 1 1 0.0 8.148 19.581 14.359
849 1 1 0.0 7.555 18.313 13.784
850 1 2 0.0 3.758 20.811 12.25
851 1 1 0.0 3.523 21.725 12.094
852 1 1 0.0 3.523 20.655 13.164
853 1 2 0.0 10.822 24.486 15.926
854 1 1 0.0 10.379 24.223 16.732
855 1 1 0.0 10.379 25.293 15.662
856 1 2 0.0 10.682 24.545 5.417
857 1 1 0.0 9.764 24.736 5.225
858 1 1 0.0 10.649 23.867 6.095
859 1 2 0.0 2.181 31.117 14.061
860 1 1 0.0 1.82 31.48 13.253
861 1 1 0.0 3.089 30.905 13.846
862 1 2 0.0 4.785 30.467 13.409
863 1 1 0.0 5.011 30.693 12.507
864 1 1 0.0 5.345 31.027 13.947
865 1 2 0.0 7.456 24.509 2.233
866 1 1 0.0 6.756 23.858 2.217
867 1 1 0.0 7.061 25.298 1.864
868 1 2 0.0 3.69 17.712 9.083
869 1 1 0.0 3.534 16.797 9.317
870 1 1 0.0 4.604 17.867 9.317
871 1 2 0.0 10.66 31.117 15.9
872 1 1 0.0 11.021 31.48 16.708
873 1 1 0.0 9.752 30.905 16.116
874 1 2 0.0 3.107 32.194 9.665
875 1 1 0.0 2.457 32.179 10.365
876 1 1 0.0 3.897 31.826 10.06
877 1 2 0.0 3.143 18.258 6.439
878 1 1 0.0 2.465 18.936 6.472
879 1 1 0.0 3.335 18.066 7.357
880 1 2 0.0 8.038 25.091 4.871
881 1 1 0.0 7.804 26.005 5.027
882 1 1 0.0 7.804 24.935 3.957
883 1 2 0.0 15.9 19.22 5.436
884 1 1 0.0 16.116 18.313 5.224
885 1 1 0.0 16.708 19.581 5.799
886 1 2 0.0 14.916 32.102 6.42
887 1 1 0.0 15.501 32.638 5.884
888 1 1 0.0 15.501 31.566 6.956
889 1 2 0.0 2.159 24.545 7.424
890 1 1 0.0 2.191 23.867 6.746
891 1 1 0.0 3.077 24.736 7.615
892 1 2 0.0 3.107 32.009 3.176
893 1 1 0.0 2.457 32.025 2.476
894 1 1 0.0 3.897 32.377 2.78
895 1 2 0.0 7.365 33.047 10.822
896 1 1 0.0 8.172 32.783 10.379
897 1 1 0.0 7.102 33.853 10.379
898 1 2 0.0 2.121 22.538 15.984
899 1 1 0.0 1.204 22.346 16.176
900 1 1 0.0 2.089 23.216 15.306
901 1 2 0.0 11.704 18.258 15.0
902 1 1 0.0 11.896 18.066 15.917
903 1 1 0.0 11.026 18.936 15.032
904 1 2 0.0 13.996 31.182 2.181
905 1 1 0.0 14.359 30.374 1.82
906 1 1 0.0 13.784 30.967 3.089
907 1 2 0.0 15.102 18.316 11.646
908 1 1 0.0 14.659 18.58 12.452
909 1 1 0.0 14.659 17.51 11.382
910 1 2 0.0 16.53 33.72 4.871
911 1 1 0.0 16.375 33.485 3.957
912 1 1 0.0 17.445 33.485 5.027
913 1 2 0.0 1.156 28.741 15.022
914 1 1 0.0 0.943 28.957 15.929
915 1 1 0.0 1.519 29.549 14.661
916 1 2 0.0 12.25 29.44 12.25
917 1 1 0.0 12.094 29.205 13.164
918 1 1 0.0 13.164 29.205 12.094
919 1 2 0.0 14.94 20.246 3.06
920 1 1 0.0 15.301 19.883 3.868
921 1 1 0.0 14.032 20.458 3.275
922 1 2 0.0 9.129 26.187 12.336
923 1 1 0.0 9.667 26.746 11.776
924 1 1 0.0 8.227 26.413 12.11
925 1 2 0.0 11.685 32.061 11.62
926 1 1 0.0 11.897 31.153 11.836
927 1 1 0.0 11.322 32.422 12.428
928 1 2 0.0 1.221 32.143 11.685
929 1 1 0.0 0.413 31.782 11.322
930 1 1 0.0 1.005 33.05 11.897
931 1 2 0.0 9.716 23.582 11.62
932 1 1 0.0 10.079 23.221 12.428
933 1 1 0.0 9.504 24.49 11.836
934 1 2 0.0 5.475 22.596 2.262
935 1 1 0.0 4.669 22.86 1.818
936 1 1 0.0 5.739 21.79 1.818
937 1 2 0.0 5.501 19.302 5.436
938 1 1 0.0 4.693 18.941 5.799
939 1 1 0.0 5.285 20.21 5.224
940 1 2 0.0 2.099 24.526 14.061
941 1 1 0.0 2.46 24.163 13.253
942 1 1 0.0 1.192 24.738 13.846
943 1 2 0.0 14.888 18.225 1.173
944 1 1 0.0 14.904 18.926 1.823
945 1 1 0.0 15.257 18.621 0.384
946 1 2 0.0 1.156 18.342 14.94
947 1 1 0.0 1.519 17.534 15.301
948 1 1 0.0 0.943 18.126 14.032
949 1 2 0.0 15.073 20.297 9.733
950 1 1 0.0 14.705 19.901 8.944
951 1 1 0.0 15.058 19.597 10.384
952 1 2 0.0 4.785 21.906 4.849
953 1 1 0.0 5.345 22.466 5.386
954 1 1 0.0 5.011 22.132 3.946