# LAMMPS data file written by OVITO Basic 3.5.4
1512 atoms
1008 bonds
2 atom types
1 bond types
-0.376 26.48 xlo xhi
-0.014 22.431 ylo yhi
-8.878 20.132 zlo zhi

Masses

1 1.00794  # H
2 15.9994  # O

Atoms  # full

1 1 2 0.0 2.218 4.2 1.804
2 1 1 0.0 2.886 4.863 1.979
3 1 1 0.0 2.133 3.722 2.628
4 1 2 0.0 4.155 5.979 2.738
5 1 1 0.0 5.013 5.573 2.612
6 1 1 0.0 4.142 6.709 2.12
7 1 2 0.0 0.425 6.041 0.814
8 1 1 0.0 -0.376 5.522 0.731
9 1 1 0.0 1.069 5.431 1.172
10 1 2 0.0 2.268 3.025 4.327
11 1 1 0.0 2.722 3.587 4.954
12 1 1 0.0 1.507 2.695 4.806
13 1 2 0.0 1.836 3.008 -0.616
14 1 1 0.0 2.136 3.411 0.199
15 1 1 0.0 2.64 2.81 -1.095
16 1 2 0.0 3.609 0.835 1.112
17 1 1 0.0 3.354 0.312 0.352
18 1 1 0.0 2.804 0.922 1.623
19 1 2 0.0 1.084 0.859 2.339
20 1 1 0.0 0.363 1.486 2.374
21 1 1 0.0 0.744 0.132 1.818
22 1 2 0.0 2.133 0.464 6.936
23 1 1 0.0 2.218 -0.014 6.113
24 1 1 0.0 1.464 1.127 6.761
25 1 2 0.0 8.897 2.242 2.889
26 1 1 0.0 8.039 1.837 3.014
27 1 1 0.0 8.91 2.973 3.507
28 1 2 0.0 3.926 2.304 7.926
29 1 1 0.0 4.727 1.786 8.01
30 1 1 0.0 3.281 1.695 7.568
31 1 2 0.0 2.083 6.761 4.413
32 1 1 0.0 2.844 6.431 3.934
33 1 1 0.0 1.629 7.323 3.786
34 1 2 0.0 2.515 6.745 9.356
35 1 1 0.0 1.711 6.546 9.835
36 1 1 0.0 2.215 7.147 8.541
37 1 2 0.0 0.742 4.571 7.628
38 1 1 0.0 1.547 4.658 7.118
39 1 1 0.0 0.996 4.048 8.389
40 1 2 0.0 3.267 4.595 6.402
41 1 1 0.0 3.988 5.222 6.366
42 1 1 0.0 3.607 3.868 6.922
43 1 2 0.0 6.483 3.272 5.379
44 1 1 0.0 6.569 3.75 4.556
45 1 1 0.0 5.815 2.609 5.204
46 1 2 0.0 4.547 1.494 4.445
47 1 1 0.0 4.56 0.764 5.064
48 1 1 0.0 3.689 1.899 4.571
49 1 2 0.0 8.277 1.432 6.37
50 1 1 0.0 7.632 2.041 6.011
51 1 1 0.0 9.077 1.95 6.453
52 1 2 0.0 6.434 4.448 2.857
53 1 1 0.0 7.194 4.777 2.378
54 1 1 0.0 5.98 3.886 2.229
55 1 2 0.0 6.865 4.464 7.799
56 1 1 0.0 6.061 4.663 8.279
57 1 1 0.0 6.565 4.061 6.984
58 1 2 0.0 5.093 6.638 6.071
59 1 1 0.0 5.898 6.55 5.561
60 1 1 0.0 5.347 7.161 6.832
61 1 2 0.0 7.617 6.614 4.845
62 1 1 0.0 7.958 7.341 5.366
63 1 1 0.0 8.339 5.986 4.809
64 1 2 0.0 6.569 7.008 0.248
65 1 1 0.0 7.237 6.346 0.422
66 1 1 0.0 6.483 7.487 1.071
67 1 2 0.0 -0.196 5.23 4.295
68 1 1 0.0 -0.209 4.5 3.677
69 1 1 0.0 0.662 5.636 4.169
70 1 2 0.0 4.775 5.168 -0.743
71 1 1 0.0 5.42 5.778 -0.384
72 1 1 0.0 3.975 5.686 -0.826
73 1 2 0.0 6.618 0.711 2.77
74 1 1 0.0 7.073 0.149 3.397
75 1 1 0.0 5.858 1.041 3.249
76 1 2 0.0 6.187 0.728 -2.172
77 1 1 0.0 6.487 0.325 -1.357
78 1 1 0.0 6.991 0.927 -2.652
79 1 2 0.0 7.959 2.902 -0.445
80 1 1 0.0 7.705 3.425 -1.205
81 1 1 0.0 7.154 2.814 0.066
82 1 2 0.0 5.435 2.878 0.782
83 1 1 0.0 5.095 3.605 0.261
84 1 1 0.0 4.714 2.25 0.818
85 1 2 0.0 10.919 4.2 -1.309
86 1 1 0.0 11.588 4.863 -1.134
87 1 1 0.0 10.834 3.722 -0.486
88 1 2 0.0 12.856 5.979 -0.375
89 1 1 0.0 13.714 5.573 -0.501
90 1 1 0.0 12.843 6.709 -0.993
91 1 2 0.0 9.126 6.041 -2.299
92 1 1 0.0 8.326 5.522 -2.383
93 1 1 0.0 9.771 5.431 -1.941
94 1 2 0.0 10.969 3.025 1.213
95 1 1 0.0 11.423 3.587 1.841
96 1 1 0.0 10.209 2.695 1.693
97 1 2 0.0 10.537 3.008 -3.729
98 1 1 0.0 10.838 3.411 -2.914
99 1 1 0.0 11.342 2.81 -4.208
100 1 2 0.0 12.31 0.835 -2.001
101 1 1 0.0 12.056 0.312 -2.762
102 1 1 0.0 11.505 0.922 -1.491
103 1 2 0.0 9.786 0.859 -0.775
104 1 1 0.0 9.064 1.486 -0.739
105 1 1 0.0 9.445 0.132 -1.295
106 1 2 0.0 10.834 0.464 3.823
107 1 1 0.0 10.919 -0.014 2.999
108 1 1 0.0 10.166 1.127 3.648
109 1 2 0.0 17.599 2.242 -0.225
110 1 1 0.0 16.741 1.837 -0.099
111 1 1 0.0 17.612 2.973 0.394
112 1 2 0.0 12.628 2.304 4.813
113 1 1 0.0 13.428 1.786 4.896
114 1 1 0.0 11.983 1.695 4.455
115 1 2 0.0 10.785 6.761 1.3
116 1 1 0.0 11.545 6.431 0.821
117 1 1 0.0 10.33 7.323 0.673
118 1 2 0.0 11.216 6.745 6.243
119 1 1 0.0 10.412 6.546 6.722
120 1 1 0.0 10.916 7.147 5.427
121 1 2 0.0 9.444 4.571 4.515
122 1 1 0.0 10.249 4.658 4.004
123 1 1 0.0 9.698 4.048 5.275
124 1 2 0.0 11.968 4.595 3.288
125 1 1 0.0 12.689 5.222 3.252
126 1 1 0.0 12.308 3.868 3.809
127 1 2 0.0 15.185 3.272 2.266
128 1 1 0.0 15.27 3.75 1.442
129 1 1 0.0 14.517 2.609 2.091
130 1 2 0.0 13.248 1.494 1.332
131 1 1 0.0 13.261 0.764 1.95
132 1 1 0.0 12.39 1.899 1.458
133 1 2 0.0 16.978 1.432 3.256
134 1 1 0.0 16.334 2.041 2.898
135 1 1 0.0 17.779 1.95 3.339
136 1 2 0.0 15.135 4.448 -0.257
137 1 1 0.0 15.896 4.777 -0.736
138 1 1 0.0 14.681 3.886 -0.884
139 1 2 0.0 15.567 4.464 4.686
140 1 1 0.0 14.763 4.663 5.165
141 1 1 0.0 15.267 4.061 3.871
142 1 2 0.0 13.794 6.638 2.958
143 1 1 0.0 14.599 6.55 2.448
144 1 1 0.0 14.049 7.161 3.719
145 1 2 0.0 16.319 6.614 1.731
146 1 1 0.0 16.659 7.341 2.252
147 1 1 0.0 17.04 5.986 1.696
148 1 2 0.0 15.27 7.008 -2.866
149 1 1 0.0 15.938 6.346 -2.691
150 1 1 0.0 15.185 7.487 -2.042
151 1 2 0.0 8.506 5.23 1.182
152 1 1 0.0 8.493 4.5 0.563
153 1 1 0.0 9.364 5.636 1.056
154 1 2 0.0 13.477 5.168 -3.856
155 1 1 0.0 14.122 5.778 -3.498
156 1 1 0.0 12.676 5.686 -3.939
157 1 2 0.0 15.32 0.711 -0.343
158 1 1 0.0 15.774 0.149 0.284
159 1 1 0.0 14.559 1.041 0.136
160 1 2 0.0 14.888 0.728 -5.286
161 1 1 0.0 15.188 0.325 -4.471
162 1 1 0.0 15.692 0.927 -5.765
163 1 2 0.0 16.661 2.902 -3.558
164 1 1 0.0 16.407 3.425 -4.319
165 1 1 0.0 15.856 2.814 -3.048
166 1 2 0.0 14.136 2.878 -2.331
167 1 1 0.0 13.796 3.605 -2.852
168 1 1 0.0 13.415 2.25 -2.296
169 1 2 0.0 19.621 4.2 -4.422
170 1 1 0.0 20.289 4.863 -4.248
171 1 1 0.0 19.536 3.722 -3.599
172 1 2 0.0 21.558 5.979 -3.489
173 1 1 0.0 22.416 5.573 -3.614
174 1 1 0.0 21.545 6.709 -4.107
175 1 2 0.0 17.828 6.041 -5.413
176 1 1 0.0 17.027 5.522 -5.496
177 1 1 0.0 18.472 5.431 -5.055
178 1 2 0.0 19.671 3.025 -1.9
179 1 1 0.0 20.125 3.587 -1.273
180 1 1 0.0 18.91 2.695 -1.421
181 1 2 0.0 19.239 3.008 -6.843
182 1 1 0.0 19.539 3.411 -6.027
183 1 1 0.0 20.043 2.81 -7.322
184 1 2 0.0 21.011 0.835 -5.115
185 1 1 0.0 20.757 0.312 -5.875
186 1 1 0.0 20.207 0.922 -4.604
187 1 2 0.0 18.487 0.859 -3.888
188 1 1 0.0 17.766 1.486 -3.852
189 1 1 0.0 18.147 0.132 -4.409
190 1 2 0.0 19.536 0.464 0.709
191 1 1 0.0 19.621 -0.014 -0.114
192 1 1 0.0 18.867 1.127 0.534
193 1 2 0.0 26.3 2.242 -3.338
194 1 1 0.0 25.442 1.837 -3.212
195 1 1 0.0 26.313 2.973 -2.72
196 1 2 0.0 21.329 2.304 1.7
197 1 1 0.0 22.13 1.786 1.783
198 1 1 0.0 20.684 1.695 1.341
199 1 2 0.0 19.486 6.761 -1.813
200 1 1 0.0 20.247 6.431 -2.292
201 1 1 0.0 19.032 7.323 -2.441
202 1 2 0.0 19.918 6.745 3.129
203 1 1 0.0 19.114 6.546 3.608
204 1 1 0.0 19.617 7.147 2.314
205 1 2 0.0 18.145 4.571 1.401
206 1 1 0.0 18.95 4.658 0.891
207 1 1 0.0 18.399 4.048 2.162
208 1 2 0.0 20.669 4.595 0.175
209 1 1 0.0 21.391 5.222 0.139
210 1 1 0.0 21.01 3.868 0.696
211 1 2 0.0 23.886 3.272 -0.848
212 1 1 0.0 23.972 3.75 -1.671
213 1 1 0.0 23.218 2.609 -1.022
214 1 2 0.0 21.949 1.494 -1.781
215 1 1 0.0 21.963 0.764 -1.163
216 1 1 0.0 21.092 1.899 -1.656
217 1 2 0.0 25.68 1.432 0.143
218 1 1 0.0 25.035 2.041 -0.215
219 1 1 0.0 26.48 1.95 0.226
220 1 2 0.0 23.837 4.448 -3.37
221 1 1 0.0 24.597 4.777 -3.849
222 1 1 0.0 23.383 3.886 -3.997
223 1 2 0.0 24.268 4.464 1.573
224 1 1 0.0 23.464 4.663 2.052
225 1 1 0.0 23.968 4.061 0.757
226 1 2 0.0 22.496 6.638 -0.155
227 1 1 0.0 23.301 6.55 -0.666
228 1 1 0.0 22.75 7.161 0.605
229 1 2 0.0 25.02 6.614 -1.382
230 1 1 0.0 25.36 7.341 -0.861
231 1 1 0.0 25.742 5.986 -1.418
232 1 2 0.0 23.972 7.008 -5.979
233 1 1 0.0 24.64 6.346 -5.804
234 1 1 0.0 23.886 7.487 -5.156
235 1 2 0.0 17.207 5.23 -1.932
236 1 1 0.0 17.194 4.5 -2.55
237 1 1 0.0 18.065 5.636 -2.058
238 1 2 0.0 22.178 5.168 -6.97
239 1 1 0.0 22.823 5.778 -6.611
240 1 1 0.0 21.378 5.686 -7.053
241 1 2 0.0 24.021 0.711 -3.457
242 1 1 0.0 24.476 0.149 -2.829
243 1 1 0.0 23.261 1.041 -2.978
244 1 2 0.0 23.59 0.728 -8.399
245 1 1 0.0 23.89 0.325 -7.584
246 1 1 0.0 24.394 0.927 -8.878
247 1 2 0.0 25.362 2.902 -6.671
248 1 1 0.0 25.108 3.425 -7.432
249 1 1 0.0 24.557 2.814 -6.161
250 1 2 0.0 22.838 2.878 -5.445
251 1 1 0.0 22.498 3.605 -5.966
252 1 1 0.0 22.117 2.25 -5.409
253 1 2 0.0 2.218 11.673 1.804
254 1 1 0.0 2.886 12.335 1.979
255 1 1 0.0 2.133 11.194 2.628
256 1 2 0.0 4.155 13.451 2.738
257 1 1 0.0 5.013 13.045 2.612
258 1 1 0.0 4.142 14.181 2.12
259 1 2 0.0 0.425 13.513 0.814
260 1 1 0.0 -0.376 12.995 0.731
261 1 1 0.0 1.069 12.903 1.172
262 1 2 0.0 2.268 10.497 4.327
263 1 1 0.0 2.722 11.059 4.954
264 1 1 0.0 1.507 10.168 4.806
265 1 2 0.0 1.836 10.481 -0.616
266 1 1 0.0 2.136 10.884 0.199
267 1 1 0.0 2.64 10.282 -1.095
268 1 2 0.0 3.609 8.307 1.112
269 1 1 0.0 3.354 7.784 0.352
270 1 1 0.0 2.804 8.394 1.623
271 1 2 0.0 1.084 8.331 2.339
272 1 1 0.0 0.363 8.959 2.374
273 1 1 0.0 0.744 7.604 1.818
274 1 2 0.0 2.133 7.936 6.936
275 1 1 0.0 2.218 7.458 6.113
276 1 1 0.0 1.464 8.599 6.761
277 1 2 0.0 8.897 9.715 2.889
278 1 1 0.0 8.039 9.309 3.014
279 1 1 0.0 8.91 10.445 3.507
280 1 2 0.0 3.926 9.777 7.926
281 1 1 0.0 4.727 9.258 8.01
282 1 1 0.0 3.281 9.167 7.568
283 1 2 0.0 2.083 14.233 4.413
284 1 1 0.0 2.844 13.904 3.934
285 1 1 0.0 1.629 14.795 3.786
286 1 2 0.0 2.515 14.217 9.356
287 1 1 0.0 1.711 14.018 9.835
288 1 1 0.0 2.215 14.62 8.541
289 1 2 0.0 0.742 12.043 7.628
290 1 1 0.0 1.547 12.131 7.118
291 1 1 0.0 0.996 11.52 8.389
292 1 2 0.0 3.267 12.067 6.402
293 1 1 0.0 3.988 12.695 6.366
294 1 1 0.0 3.607 11.34 6.922
295 1 2 0.0 6.483 10.745 5.379
296 1 1 0.0 6.569 11.223 4.556
297 1 1 0.0 5.815 10.082 5.204
298 1 2 0.0 4.547 8.966 4.445
299 1 1 0.0 4.56 8.236 5.064
300 1 1 0.0 3.689 9.372 4.571
301 1 2 0.0 8.277 8.904 6.37
302 1 1 0.0 7.632 9.514 6.011
303 1 1 0.0 9.077 9.423 6.453
304 1 2 0.0 6.434 11.92 2.857
305 1 1 0.0 7.194 12.25 2.378
306 1 1 0.0 5.98 11.358 2.229
307 1 2 0.0 6.865 11.936 7.799
308 1 1 0.0 6.061 12.135 8.279
309 1 1 0.0 6.565 11.534 6.984
310 1 2 0.0 5.093 14.11 6.071
311 1 1 0.0 5.898 14.023 5.561
312 1 1 0.0 5.347 14.633 6.832
313 1 2 0.0 7.617 14.086 4.845
314 1 1 0.0 7.958 14.813 5.366
315 1 1 0.0 8.339 13.459 4.809
316 1 2 0.0 6.569 14.481 0.248
317 1 1 0.0 7.237 13.818 0.422
318 1 1 0.0 6.483 14.959 1.071
319 1 2 0.0 -0.196 12.702 4.295
320 1 1 0.0 -0.209 11.972 3.677
321 1 1 0.0 0.662 13.108 4.169
322 1 2 0.0 4.775 12.64 -0.743
323 1 1 0.0 5.42 13.25 -0.384
324 1 1 0.0 3.975 13.159 -0.826
325 1 2 0.0 6.618 8.184 2.77
326 1 1 0.0 7.073 7.622 3.397
327 1 1 0.0 5.858 8.513 3.249
328 1 2 0.0 6.187 8.2 -2.172
329 1 1 0.0 6.487 7.797 -1.357
330 1 1 0.0 6.991 8.399 -2.652
331 1 2 0.0 7.959 10.374 -0.445
332 1 1 0.0 7.705 10.897 -1.205
333 1 1 0.0 7.154 10.287 0.066
334 1 2 0.0 5.435 10.35 0.782
335 1 1 0.0 5.095 11.077 0.261
336 1 1 0.0 4.714 9.722 0.818
337 1 2 0.0 10.919 11.673 -1.309
338 1 1 0.0 11.588 12.335 -1.134
339 1 1 0.0 10.834 11.194 -0.486
340 1 2 0.0 12.856 13.451 -0.375
341 1 1 0.0 13.714 13.045 -0.501
342 1 1 0.0 12.843 14.181 -0.993
343 1 2 0.0 9.126 13.513 -2.299
344 1 1 0.0 8.326 12.995 -2.383
345 1 1 0.0 9.771 12.903 -1.941
346 1 2 0.0 10.969 10.497 1.213
347 1 1 0.0 11.423 11.059 1.841
348 1 1 0.0 10.209 10.168 1.693
349 1 2 0.0 10.537 10.481 -3.729
350 1 1 0.0 10.838 10.884 -2.914
351 1 1 0.0 11.342 10.282 -4.208
352 1 2 0.0 12.31 8.307 -2.001
353 1 1 0.0 12.056 7.784 -2.762
354 1 1 0.0 11.505 8.394 -1.491
355 1 2 0.0 9.786 8.331 -0.775
356 1 1 0.0 9.064 8.959 -0.739
357 1 1 0.0 9.445 7.604 -1.295
358 1 2 0.0 10.834 7.936 3.823
359 1 1 0.0 10.919 7.458 2.999
360 1 1 0.0 10.166 8.599 3.648
361 1 2 0.0 17.599 9.715 -0.225
362 1 1 0.0 16.741 9.309 -0.099
363 1 1 0.0 17.612 10.445 0.394
364 1 2 0.0 12.628 9.777 4.813
365 1 1 0.0 13.428 9.258 4.896
366 1 1 0.0 11.983 9.167 4.455
367 1 2 0.0 10.785 14.233 1.3
368 1 1 0.0 11.545 13.904 0.821
369 1 1 0.0 10.33 14.795 0.673
370 1 2 0.0 11.216 14.217 6.243
371 1 1 0.0 10.412 14.018 6.722
372 1 1 0.0 10.916 14.62 5.427
373 1 2 0.0 9.444 12.043 4.515
374 1 1 0.0 10.249 12.131 4.004
375 1 1 0.0 9.698 11.52 5.275
376 1 2 0.0 11.968 12.067 3.288
377 1 1 0.0 12.689 12.695 3.252
378 1 1 0.0 12.308 11.34 3.809
379 1 2 0.0 15.185 10.745 2.266
380 1 1 0.0 15.27 11.223 1.442
381 1 1 0.0 14.517 10.082 2.091
382 1 2 0.0 13.248 8.966 1.332
383 1 1 0.0 13.261 8.236 1.95
384 1 1 0.0 12.39 9.372 1.458
385 1 2 0.0 16.978 8.904 3.256
386 1 1 0.0 16.334 9.514 2.898
387 1 1 0.0 17.779 9.423 3.339
388 1 2 0.0 15.135 11.92 -0.257
389 1 1 0.0 15.896 12.25 -0.736
390 1 1 0.0 14.681 11.358 -0.884
391 1 2 0.0 15.567 11.936 4.686
392 1 1 0.0 14.763 12.135 5.165
393 1 1 0.0 15.267 11.534 3.871
394 1 2 0.0 13.794 14.11 2.958
395 1 1 0.0 14.599 14.023 2.448
396 1 1 0.0 14.049 14.633 3.719
397 1 2 0.0 16.319 14.086 1.731
398 1 1 0.0 16.659 14.813 2.252
399 1 1 0.0 17.04 13.459 1.696
400 1 2 0.0 15.27 14.481 -2.866
401 1 1 0.0 15.938 13.818 -2.691
402 1 1 0.0 15.185 14.959 -2.042
403 1 2 0.0 8.506 12.702 1.182
404 1 1 0.0 8.493 11.972 0.563
405 1 1 0.0 9.364 13.108 1.056
406 1 2 0.0 13.477 12.64 -3.856
407 1 1 0.0 14.122 13.25 -3.498
408 1 1 0.0 12.676 13.159 -3.939
409 1 2 0.0 15.32 8.184 -0.343
410 1 1 0.0 15.774 7.622 0.284
411 1 1 0.0 14.559 8.513 0.136
412 1 2 0.0 14.888 8.2 -5.286
413 1 1 0.0 15.188 7.797 -4.471
414 1 1 0.0 15.692 8.399 -5.765
415 1 2 0.0 16.661 10.374 -3.558
416 1 1 0.0 16.407 10.897 -4.319
417 1 1 0.0 15.856 10.287 -3.048
418 1 2 0.0 14.136 10.35 -2.331
419 1 1 0.0 13.796 11.077 -2.852
420 1 1 0.0 13.415 9.722 -2.296
421 1 2 0.0 19.621 11.673 -4.422
422 1 1 0.0 20.289 12.335 -4.248
423 1 1 0.0 19.536 11.194 -3.599
424 1 2 0.0 21.558 13.451 -3.489
425 1 1 0.0 22.416 13.045 -3.614
426 1 1 0.0 21.545 14.181 -4.107
427 1 2 0.0 17.828 13.513 -5.413
428 1 1 0.0 17.027 12.995 -5.496
429 1 1 0.0 18.472 12.903 -5.055
430 1 2 0.0 19.671 10.497 -1.9
431 1 1 0.0 20.125 11.059 -1.273
432 1 1 0.0 18.91 10.168 -1.421
433 1 2 0.0 19.239 10.481 -6.843
434 1 1 0.0 19.539 10.884 -6.027
435 1 1 0.0 20.043 10.282 -7.322
436 1 2 0.0 21.011 8.307 -5.115
437 1 1 0.0 20.757 7.784 -5.875
438 1 1 0.0 20.207 8.394 -4.604
439 1 2 0.0 18.487 8.331 -3.888
440 1 1 0.0 17.766 8.959 -3.852
441 1 1 0.0 18.147 7.604 -4.409
442 1 2 0.0 19.536 7.936 0.709
443 1 1 0.0 19.621 7.458 -0.114
444 1 1 0.0 18.867 8.599 0.534
445 1 2 0.0 26.3 9.715 -3.338
446 1 1 0.0 25.442 9.309 -3.212
447 1 1 0.0 26.313 10.445 -2.72
448 1 2 0.0 21.329 9.777 1.7
449 1 1 0.0 22.13 9.258 1.783
450 1 1 0.0 20.684 9.167 1.341
451 1 2 0.0 19.486 14.233 -1.813
452 1 1 0.0 20.247 13.904 -2.292
453 1 1 0.0 19.032 14.795 -2.441
454 1 2 0.0 19.918 14.217 3.129
455 1 1 0.0 19.114 14.018 3.608
456 1 1 0.0 19.617 14.62 2.314
457 1 2 0.0 18.145 12.043 1.401
458 1 1 0.0 18.95 12.131 0.891
459 1 1 0.0 18.399 11.52 2.162
460 1 2 0.0 20.669 12.067 0.175
461 1 1 0.0 21.391 12.695 0.139
462 1 1 0.0 21.01 11.34 0.696
463 1 2 0.0 23.886 10.745 -0.848
464 1 1 0.0 23.972 11.223 -1.671
465 1 1 0.0 23.218 10.082 -1.022
466 1 2 0.0 21.949 8.966 -1.781
467 1 1 0.0 21.963 8.236 -1.163
468 1 1 0.0 21.092 9.372 -1.656
469 1 2 0.0 25.68 8.904 0.143
470 1 1 0.0 25.035 9.514 -0.215
471 1 1 0.0 26.48 9.423 0.226
472 1 2 0.0 23.837 11.92 -3.37
473 1 1 0.0 24.597 12.25 -3.849
474 1 1 0.0 23.383 11.358 -3.997
475 1 2 0.0 24.268 11.936 1.573
476 1 1 0.0 23.464 12.135 2.052
477 1 1 0.0 23.968 11.534 0.757
478 1 2 0.0 22.496 14.11 -0.155
479 1 1 0.0 23.301 14.023 -0.666
480 1 1 0.0 22.75 14.633 0.605
481 1 2 0.0 25.02 14.086 -1.382
482 1 1 0.0 25.36 14.813 -0.861
483 1 1 0.0 25.742 13.459 -1.418
484 1 2 0.0 23.972 14.481 -5.979
485 1 1 0.0 24.64 13.818 -5.804
486 1 1 0.0 23.886 14.959 -5.156
487 1 2 0.0 17.207 12.702 -1.932
488 1 1 0.0 17.194 11.972 -2.55
489 1 1 0.0 18.065 13.108 -2.058
490 1 2 0.0 22.178 12.64 -6.97
491 1 1 0.0 22.823 13.25 -6.611
492 1 1 0.0 21.378 13.159 -7.053
493 1 2 0.0 24.021 8.184 -3.457
494 1 1 0.0 24.476 7.622 -2.829
495 1 1 0.0 23.261 8.513 -2.978
496 1 2 0.0 23.59 8.2 -8.399
497 1 1 0.0 23.89 7.797 -7.584
498 1 1 0.0 24.394 8.399 -8.878
499 1 2 0.0 25.362 10.374 -6.671
500 1 1 0.0 25.108 10.897 -7.432
501 1 1 0.0 24.557 10.287 -6.161
502 1 2 0.0 22.838 10.35 -5.445
503 1 1 0.0 22.498 11.077 -5.966
504 1 1 0.0 22.117 9.722 -5.409
505 1 2 0.0 2.218 19.145 1.804
506 1 1 0.0 2.886 19.808 1.979
507 1 1 0.0 2.133 18.667 2.628
508 1 2 0.0 4.155 20.923 2.738
509 1 1 0.0 5.013 20.518 2.612
510 1 1 0.0 4.142 21.654 2.12
511 1 2 0.0 0.425 20.985 0.814
512 1 1 0.0 -0.376 20.467 0.731
513 1 1 0.0 1.069 20.376 1.172
514 1 2 0.0 2.268 17.97 4.327
515 1 1 0.0 2.722 18.532 4.954
516 1 1 0.0 1.507 17.64 4.806
517 1 2 0.0 1.836 17.953 -0.616
518 1 1 0.0 2.136 18.356 0.199
519 1 1 0.0 2.64 17.754 -1.095
520 1 2 0.0 3.609 15.779 1.112
521 1 1 0.0 3.354 15.256 0.352
522 1 1 0.0 2.804 15.867 1.623
523 1 2 0.0 1.084 15.803 2.339
524 1 1 0.0 0.363 16.431 2.374
525 1 1 0.0 0.744 15.076 1.818
526 1 2 0.0 2.133 15.409 6.936
527 1 1 0.0 2.218 14.931 6.113
528 1 1 0.0 1.464 16.072 6.761
529 1 2 0.0 8.897 17.187 2.889
530 1 1 0.0 8.039 16.782 3.014
531 1 1 0.0 8.91 17.917 3.507
532 1 2 0.0 3.926 17.249 7.926
533 1 1 0.0 4.727 16.731 8.01
534 1 1 0.0 3.281 16.64 7.568
535 1 2 0.0 2.083 21.706 4.413
536 1 1 0.0 2.844 21.376 3.934
537 1 1 0.0 1.629 22.268 3.786
538 1 2 0.0 2.515 21.689 9.356
539 1 1 0.0 1.711 21.491 9.835
540 1 1 0.0 2.215 22.092 8.541
541 1 2 0.0 0.742 19.516 7.628
542 1 1 0.0 1.547 19.603 7.118
543 1 1 0.0 0.996 18.993 8.389
544 1 2 0.0 3.267 19.54 6.402
545 1 1 0.0 3.988 20.167 6.366
546 1 1 0.0 3.607 18.813 6.922
547 1 2 0.0 6.483 18.217 5.379
548 1 1 0.0 6.569 18.695 4.556
549 1 1 0.0 5.815 17.554 5.204
550 1 2 0.0 4.547 16.439 4.445
551 1 1 0.0 4.56 15.708 5.064
552 1 1 0.0 3.689 16.844 4.571
553 1 2 0.0 8.277 16.377 6.37
554 1 1 0.0 7.632 16.986 6.011
555 1 1 0.0 9.077 16.895 6.453
556 1 2 0.0 6.434 19.392 2.857
557 1 1 0.0 7.194 19.722 2.378
558 1 1 0.0 5.98 18.83 2.229
559 1 2 0.0 6.865 19.409 7.799
560 1 1 0.0 6.061 19.608 8.279
561 1 1 0.0 6.565 19.006 6.984
562 1 2 0.0 5.093 21.583 6.071
563 1 1 0.0 5.898 21.495 5.561
564 1 1 0.0 5.347 22.106 6.832
565 1 2 0.0 7.617 21.559 4.845
566 1 1 0.0 7.958 22.286 5.366
567 1 1 0.0 8.339 20.931 4.809
568 1 2 0.0 6.569 21.953 0.248
569 1 1 0.0 7.237 21.29 0.422
570 1 1 0.0 6.483 22.431 1.071
571 1 2 0.0 -0.196 20.175 4.295
572 1 1 0.0 -0.209 19.445 3.677
573 1 1 0.0 0.662 20.58 4.169
574 1 2 0.0 4.775 20.113 -0.743
575 1 1 0.0 5.42 20.722 -0.384
576 1 1 0.0 3.975 20.631 -0.826
577 1 2 0.0 6.618 15.656 2.77
578 1 1 0.0 7.073 15.094 3.397
579 1 1 0.0 5.858 15.986 3.249
580 1 2 0.0 6.187 15.673 -2.172
581 1 1 0.0 6.487 15.27 -1.357
582 1 1 0.0 6.991 15.871 -2.652
583 1 2 0.0 7.959 17.846 -0.445
584 1 1 0.0 7.705 18.369 -1.205
585 1 1 0.0 7.154 17.759 0.066
586 1 2 0.0 5.435 17.822 0.782
587 1 1 0.0 5.095 18.549 0.261
588 1 1 0.0 4.714 17.195 0.818
589 1 2 0.0 10.919 19.145 -1.309
590 1 1 0.0 11.588 19.808 -1.134
591 1 1 0.0 10.834 18.667 -0.486
592 1 2 0.0 12.856 20.923 -0.375
593 1 1 0.0 13.714 20.518 -0.501
594 1 1 0.0 12.843 21.654 -0.993
595 1 2 0.0 9.126 20.985 -2.299
596 1 1 0.0 8.326 20.467 -2.383
597 1 1 0.0 9.771 20.376 -1.941
598 1 2 0.0 10.969 17.97 1.213
599 1 1 0.0 11.423 18.532 1.841
600 1 1 0.0 10.209 17.64 1.693
601 1 2 0.0 10.537 17.953 -3.729
602 1 1 0.0 10.838 18.356 -2.914
603 1 1 0.0 11.342 17.754 -4.208
604 1 2 0.0 12.31 15.779 -2.001
605 1 1 0.0 12.056 15.256 -2.762
606 1 1 0.0 11.505 15.867 -1.491
607 1 2 0.0 9.786 15.803 -0.775
608 1 1 0.0 9.064 16.431 -0.739
609 1 1 0.0 9.445 15.076 -1.295
610 1 2 0.0 10.834 15.409 3.823
611 1 1 0.0 10.919 14.931 2.999
612 1 1 0.0 10.166 16.072 3.648
613 1 2 0.0 17.599 17.187 -0.225
614 1 1 0.0 16.741 16.782 -0.099
615 1 1 0.0 17.612 17.917 0.394
616 1 2 0.0 12.628 17.249 4.813
617 1 1 0.0 13.428 16.731 4.896
618 1 1 0.0 11.983 16.64 4.455
619 1 2 0.0 10.785 21.706 1.3
620 1 1 0.0 11.545 21.376 0.821
621 1 1 0.0 10.33 22.268 0.673
622 1 2 0.0 11.216 21.689 6.243
623 1 1 0.0 10.412 21.491 6.722
624 1 1 0.0 10.916 22.092 5.427
625 1 2 0.0 9.444 19.516 4.515
626 1 1 0.0 10.249 19.603 4.004
627 1 1 0.0 9.698 18.993 5.275
628 1 2 0.0 11.968 19.54 3.288
629 1 1 0.0 12.689 20.167 3.252
630 1 1 0.0 12.308 18.813 3.809
631 1 2 0.0 15.185 18.217 2.266
632 1 1 0.0 15.27 18.695 1.442
633 1 1 0.0 14.517 17.554 2.091
634 1 2 0.0 13.248 16.439 1.332
635 1 1 0.0 13.261 15.708 1.95
636 1 1 0.0 12.39 16.844 1.458
637 1 2 0.0 16.978 16.377 3.256
638 1 1 0.0 16.334 16.986 2.898
639 1 1 0.0 17.779 16.895 3.339
640 1 2 0.0 15.135 19.392 -0.257
641 1 1 0.0 15.896 19.722 -0.736
642 1 1 0.0 14.681 18.83 -0.884
643 1 2 0.0 15.567 19.409 4.686
644 1 1 0.0 14.763 19.608 5.165
645 1 1 0.0 15.267 19.006 3.871
646 1 2 0.0 13.794 21.583 2.958
647 1 1 0.0 14.599 21.495 2.448
648 1 1 0.0 14.049 22.106 3.719
649 1 2 0.0 16.319 21.559 1.731
650 1 1 0.0 16.659 22.286 2.252
651 1 1 0.0 17.04 20.931 1.696
652 1 2 0.0 15.27 21.953 -2.866
653 1 1 0.0 15.938 21.29 -2.691
654 1 1 0.0 15.185 22.431 -2.042
655 1 2 0.0 8.506 20.175 1.182
656 1 1 0.0 8.493 19.445 0.563
657 1 1 0.0 9.364 20.58 1.056
658 1 2 0.0 13.477 20.113 -3.856
659 1 1 0.0 14.122 20.722 -3.498
660 1 1 0.0 12.676 20.631 -3.939
661 1 2 0.0 15.32 15.656 -0.343
662 1 1 0.0 15.774 15.094 0.284
663 1 1 0.0 14.559 15.986 0.136
664 1 2 0.0 14.888 15.673 -5.286
665 1 1 0.0 15.188 15.27 -4.471
666 1 1 0.0 15.692 15.871 -5.765
667 1 2 0.0 16.661 17.846 -3.558
668 1 1 0.0 16.407 18.369 -4.319
669 1 1 0.0 15.856 17.759 -3.048
670 1 2 0.0 14.136 17.822 -2.331
671 1 1 0.0 13.796 18.549 -2.852
672 1 1 0.0 13.415 17.195 -2.296
673 1 2 0.0 19.621 19.145 -4.422
674 1 1 0.0 20.289 19.808 -4.248
675 1 1 0.0 19.536 18.667 -3.599
676 1 2 0.0 21.558 20.923 -3.489
677 1 1 0.0 22.416 20.518 -3.614
678 1 1 0.0 21.545 21.654 -4.107
679 1 2 0.0 17.828 20.985 -5.413
680 1 1 0.0 17.027 20.467 -5.496
681 1 1 0.0 18.472 20.376 -5.055
682 1 2 0.0 19.671 17.97 -1.9
683 1 1 0.0 20.125 18.532 -1.273
684 1 1 0.0 18.91 17.64 -1.421
685 1 2 0.0 19.239 17.953 -6.843
686 1 1 0.0 19.539 18.356 -6.027
687 1 1 0.0 20.043 17.754 -7.322
688 1 2 0.0 21.011 15.779 -5.115
689 1 1 0.0 20.757 15.256 -5.875
690 1 1 0.0 20.207 15.867 -4.604
691 1 2 0.0 18.487 15.803 -3.888
692 1 1 0.0 17.766 16.431 -3.852
693 1 1 0.0 18.147 15.076 -4.409
694 1 2 0.0 19.536 15.409 0.709
695 1 1 0.0 19.621 14.931 -0.114
696 1 1 0.0 18.867 16.072 0.534
697 1 2 0.0 26.3 17.187 -3.338
698 1 1 0.0 25.442 16.782 -3.212
699 1 1 0.0 26.313 17.917 -2.72
700 1 2 0.0 21.329 17.249 1.7
701 1 1 0.0 22.13 16.731 1.783
702 1 1 0.0 20.684 16.64 1.341
703 1 2 0.0 19.486 21.706 -1.813
704 1 1 0.0 20.247 21.376 -2.292
705 1 1 0.0 19.032 22.268 -2.441
706 1 2 0.0 19.918 21.689 3.129
707 1 1 0.0 19.114 21.491 3.608
708 1 1 0.0 19.617 22.092 2.314
709 1 2 0.0 18.145 19.516 1.401
710 1 1 0.0 18.95 19.603 0.891
711 1 1 0.0 18.399 18.993 2.162
712 1 2 0.0 20.669 19.54 0.175
713 1 1 0.0 21.391 20.167 0.139
714 1 1 0.0 21.01 18.813 0.696
715 1 2 0.0 23.886 18.217 -0.848
716 1 1 0.0 23.972 18.695 -1.671
717 1 1 0.0 23.218 17.554 -1.022
718 1 2 0.0 21.949 16.439 -1.781
719 1 1 0.0 21.963 15.708 -1.163
720 1 1 0.0 21.092 16.844 -1.656
721 1 2 0.0 25.68 16.377 0.143
722 1 1 0.0 25.035 16.986 -0.215
723 1 1 0.0 26.48 16.895 0.226
724 1 2 0.0 23.837 19.392 -3.37
725 1 1 0.0 24.597 19.722 -3.849
726 1 1 0.0 23.383 18.83 -3.997
727 1 2 0.0 24.268 19.409 1.573
728 1 1 0.0 23.464 19.608 2.052
729 1 1 0.0 23.968 19.006 0.757
730 1 2 0.0 22.496 21.583 -0.155
731 1 1 0.0 23.301 21.495 -0.666
732 1 1 0.0 22.75 22.106 0.605
733 1 2 0.0 25.02 21.559 -1.382
734 1 1 0.0 25.36 22.286 -0.861
735 1 1 0.0 25.742 20.931 -1.418
736 1 2 0.0 23.972 21.953 -5.979
737 1 1 0.0 24.64 21.29 -5.804
738 1 1 0.0 23.886 22.431 -5.156
739 1 2 0.0 17.207 20.175 -1.932
740 1 1 0.0 17.194 19.445 -2.55
741 1 1 0.0 18.065 20.58 -2.058
742 1 2 0.0 22.178 20.113 -6.97
743 1 1 0.0 22.823 20.722 -6.611
744 1 1 0.0 21.378 20.631 -7.053
745 1 2 0.0 24.021 15.656 -3.457
746 1 1 0.0 24.476 15.094 -2.829
747 1 1 0.0 23.261 15.986 -2.978
748 1 2 0.0 23.59 15.673 -8.399
749 1 1 0.0 23.89 15.27 -7.584
750 1 1 0.0 24.394 15.871 -8.878
751 1 2 0.0 25.362 17.846 -6.671
752 1 1 0.0 25.108 18.369 -7.432
753 1 1 0.0 24.557 17.759 -6.161
754 1 2 0.0 22.838 17.822 -5.445
755 1 1 0.0 22.498 18.549 -5.966
756 1 1 0.0 22.117 17.195 -5.409
757 1 2 0.0 2.218 4.2 12.101
758 1 1 0.0 2.886 4.863 12.276
759 1 1 0.0 2.133 3.722 12.925
760 1 2 0.0 4.155 5.979 13.035
761 1 1 0.0 5.013 5.573 12.909
762 1 1 0.0 4.142 6.709 12.417
763 1 2 0.0 0.425 6.041 11.111
764 1 1 0.0 -0.376 5.522 11.028
765 1 1 0.0 1.069 5.431 11.469
766 1 2 0.0 2.268 3.025 14.624
767 1 1 0.0 2.722 3.587 15.251
768 1 1 0.0 1.507 2.695 15.103
769 1 2 0.0 1.836 3.008 9.681
770 1 1 0.0 2.136 3.411 10.496
771 1 1 0.0 2.64 2.81 9.202
772 1 2 0.0 3.609 0.835 11.409
773 1 1 0.0 3.354 0.312 10.649
774 1 1 0.0 2.804 0.922 11.92
775 1 2 0.0 1.084 0.859 12.636
776 1 1 0.0 0.363 1.486 12.671
777 1 1 0.0 0.744 0.132 12.115
778 1 2 0.0 2.133 0.464 17.233
779 1 1 0.0 2.218 -0.014 16.41
780 1 1 0.0 1.464 1.127 17.058
781 1 2 0.0 8.897 2.242 13.186
782 1 1 0.0 8.039 1.837 13.311
783 1 1 0.0 8.91 2.973 13.804
784 1 2 0.0 3.926 2.304 18.223
785 1 1 0.0 4.727 1.786 18.307
786 1 1 0.0 3.281 1.695 17.865
787 1 2 0.0 2.083 6.761 14.71
788 1 1 0.0 2.844 6.431 14.231
789 1 1 0.0 1.629 7.323 14.083
790 1 2 0.0 2.515 6.745 19.653
791 1 1 0.0 1.711 6.546 20.132
792 1 1 0.0 2.215 7.147 18.838
793 1 2 0.0 0.742 4.571 17.925
794 1 1 0.0 1.547 4.658 17.415
795 1 1 0.0 0.996 4.048 18.686
796 1 2 0.0 3.267 4.595 16.699
797 1 1 0.0 3.988 5.222 16.663
798 1 1 0.0 3.607 3.868 17.219
799 1 2 0.0 6.483 3.272 15.676
800 1 1 0.0 6.569 3.75 14.853
801 1 1 0.0 5.815 2.609 15.501
802 1 2 0.0 4.547 1.494 14.742
803 1 1 0.0 4.56 0.764 15.361
804 1 1 0.0 3.689 1.899 14.868
805 1 2 0.0 8.277 1.432 16.667
806 1 1 0.0 7.632 2.041 16.308
807 1 1 0.0 9.077 1.95 16.75
808 1 2 0.0 6.434 4.448 13.154
809 1 1 0.0 7.194 4.777 12.675
810 1 1 0.0 5.98 3.886 12.526
811 1 2 0.0 6.865 4.464 18.096
812 1 1 0.0 6.061 4.663 18.576
813 1 1 0.0 6.565 4.061 17.281
814 1 2 0.0 5.093 6.638 16.368
815 1 1 0.0 5.898 6.55 15.858
816 1 1 0.0 5.347 7.161 17.129
817 1 2 0.0 7.617 6.614 15.142
818 1 1 0.0 7.958 7.341 15.663
819 1 1 0.0 8.339 5.986 15.106
820 1 2 0.0 6.569 7.008 10.545
821 1 1 0.0 7.237 6.346 10.719
822 1 1 0.0 6.483 7.487 11.368
823 1 2 0.0 -0.196 5.23 14.592
824 1 1 0.0 -0.209 4.5 13.974
825 1 1 0.0 0.662 5.636 14.466
826 1 2 0.0 4.775 5.168 9.554
827 1 1 0.0 5.42 5.778 9.913
828 1 1 0.0 3.975 5.686 9.471
829 1 2 0.0 6.618 0.711 13.067
830 1 1 0.0 7.073 0.149 13.694
831 1 1 0.0 5.858 1.041 13.546
832 1 2 0.0 6.187 0.728 8.125
833 1 1 0.0 6.487 0.325 8.94
834 1 1 0.0 6.991 0.927 7.645
835 1 2 0.0 7.959 2.902 9.852
836 1 1 0.0 7.705 3.425 9.092
837 1 1 0.0 7.154 2.814 10.363
838 1 2 0.0 5.435 2.878 11.079
839 1 1 0.0 5.095 3.605 10.558
840 1 1 0.0 4.714 2.25 11.115
841 1 2 0.0 10.919 4.2 8.988
842 1 1 0.0 11.588 4.863 9.163
843 1 1 0.0 10.834 3.722 9.811
844 1 2 0.0 12.856 5.979 9.922
845 1 1 0.0 13.714 5.573 9.796
846 1 1 0.0 12.843 6.709 9.304
847 1 2 0.0 9.126 6.041 7.998
848 1 1 0.0 8.326 5.522 7.914
849 1 1 0.0 9.771 5.431 8.356
850 1 2 0.0 10.969 3.025 11.51
851 1 1 0.0 11.423 3.587 12.138
852 1 1 0.0 10.209 2.695 11.99
853 1 2 0.0 10.537 3.008 6.568
854 1 1 0.0 10.838 3.411 7.383
855 1 1 0.0 11.342 2.81 6.089
856 1 2 0.0 12.31 0.835 8.296
857 1 1 0.0 12.056 0.312 7.535
858 1 1 0.0 11.505 0.922 8.806
859 1 2 0.0 9.786 0.859 9.522
860 1 1 0.0 9.064 1.486 9.558
861 1 1 0.0 9.445 0.132 9.002
862 1 2 0.0 10.834 0.464 14.12
863 1 1 0.0 10.919 -0.014 13.296
864 1 1 0.0 10.166 1.127 13.945
865 1 2 0.0 17.599 2.242 10.072
866 1 1 0.0 16.741 1.837 10.198
867 1 1 0.0 17.612 2.973 10.691
868 1 2 0.0 12.628 2.304 15.11
869 1 1 0.0 13.428 1.786 15.193
870 1 1 0.0 11.983 1.695 14.752
871 1 2 0.0 10.785 6.761 11.597
872 1 1 0.0 11.545 6.431 11.118
873 1 1 0.0 10.33 7.323 10.97
874 1 2 0.0 11.216 6.745 16.54
875 1 1 0.0 10.412 6.546 17.019
876 1 1 0.0 10.916 7.147 15.724
877 1 2 0.0 9.444 4.571 14.812
878 1 1 0.0 10.249 4.658 14.301
879 1 1 0.0 9.698 4.048 15.572
880 1 2 0.0 11.968 4.595 13.585
881 1 1 0.0 12.689 5.222 13.549
882 1 1 0.0 12.308 3.868 14.106
883 1 2 0.0 15.185 3.272 12.563
884 1 1 0.0 15.27 3.75 11.739
885 1 1 0.0 14.517 2.609 12.388
886 1 2 0.0 13.248 1.494 11.629
887 1 1 0.0 13.261 0.764 12.247
888 1 1 0.0 12.39 1.899 11.755
889 1 2 0.0 16.978 1.432 13.553
890 1 1 0.0 16.334 2.041 13.195
891 1 1 0.0 17.779 1.95 13.636
892 1 2 0.0 15.135 4.448 10.04
893 1 1 0.0 15.896 4.777 9.561
894 1 1 0.0 14.681 3.886 9.413
895 1 2 0.0 15.567 4.464 14.983
896 1 1 0.0 14.763 4.663 15.462
897 1 1 0.0 15.267 4.061 14.168
898 1 2 0.0 13.794 6.638 13.255
899 1 1 0.0 14.599 6.55 12.745
900 1 1 0.0 14.049 7.161 14.016
901 1 2 0.0 16.319 6.614 12.028
902 1 1 0.0 16.659 7.341 12.549
903 1 1 0.0 17.04 5.986 11.993
904 1 2 0.0 15.27 7.008 7.431
905 1 1 0.0 15.938 6.346 7.606
906 1 1 0.0 15.185 7.487 8.255
907 1 2 0.0 8.506 5.23 11.479
908 1 1 0.0 8.493 4.5 10.86
909 1 1 0.0 9.364 5.636 11.353
910 1 2 0.0 13.477 5.168 6.441
911 1 1 0.0 14.122 5.778 6.799
912 1 1 0.0 12.676 5.686 6.358
913 1 2 0.0 15.32 0.711 9.954
914 1 1 0.0 15.774 0.149 10.581
915 1 1 0.0 14.559 1.041 10.433
916 1 2 0.0 14.888 0.728 5.011
917 1 1 0.0 15.188 0.325 5.826
918 1 1 0.0 15.692 0.927 4.532
919 1 2 0.0 16.661 2.902 6.739
920 1 1 0.0 16.407 3.425 5.978
921 1 1 0.0 15.856 2.814 7.249
922 1 2 0.0 14.136 2.878 7.966
923 1 1 0.0 13.796 3.605 7.445
924 1 1 0.0 13.415 2.25 8.001
925 1 2 0.0 19.621 4.2 5.875
926 1 1 0.0 20.289 4.863 6.049
927 1 1 0.0 19.536 3.722 6.698
928 1 2 0.0 21.558 5.979 6.808
929 1 1 0.0 22.416 5.573 6.683
930 1 1 0.0 21.545 6.709 6.19
931 1 2 0.0 17.828 6.041 4.884
932 1 1 0.0 17.027 5.522 4.801
933 1 1 0.0 18.472 5.431 5.242
934 1 2 0.0 19.671 3.025 8.397
935 1 1 0.0 20.125 3.587 9.024
936 1 1 0.0 18.91 2.695 8.876
937 1 2 0.0 19.239 3.008 3.454
938 1 1 0.0 19.539 3.411 4.27
939 1 1 0.0 20.043 2.81 2.975
940 1 2 0.0 21.011 0.835 5.182
941 1 1 0.0 20.757 0.312 4.422
942 1 1 0.0 20.207 0.922 5.693
943 1 2 0.0 18.487 0.859 6.409
944 1 1 0.0 17.766 1.486 6.445
945 1 1 0.0 18.147 0.132 5.888
946 1 2 0.0 19.536 0.464 11.006
947 1 1 0.0 19.621 -0.014 10.183
948 1 1 0.0 18.867 1.127 10.831
949 1 2 0.0 26.3 2.242 6.959
950 1 1 0.0 25.442 1.837 7.085
951 1 1 0.0 26.313 2.973 7.577
952 1 2 0.0 21.329 2.304 11.997
953 1 1 0.0 22.13 1.786 12.08
954 1 1 0.0 20.684 1.695 11.638
955 1 2 0.0 19.486 6.761 8.484