# LAMMPS data file written by OVITO Basic 3.5.4
1296 atoms
864 bonds
2 atom types
1 bond types
0.486 23.027 xlo xhi
-0.063 21.069 ylo yhi
0.342 26.705 zlo zhi

Masses

1 1.00794  # H
2 15.9994  # O

Atoms  # full

1 1 2 0.0 1.271 1.834 3.369
2 1 1 0.0 1.746 1.488 2.613
3 1 1 0.0 1.746 1.495 4.127
4 1 2 0.0 5.277 4.472 1.059
5 1 1 0.0 5.696 4.809 1.852
6 1 1 0.0 4.385 4.818 1.094
7 1 2 0.0 6.586 5.387 3.308
8 1 1 0.0 6.556 6.343 3.342
9 1 1 0.0 6.127 5.105 4.1
10 1 2 0.0 5.277 4.489 5.565
11 1 1 0.0 4.385 4.836 5.6
12 1 1 0.0 5.696 4.827 6.356
13 1 2 0.0 2.561 0.912 5.626
14 1 1 0.0 2.606 -0.045 5.62
15 1 1 0.0 3.476 1.194 5.624
16 1 2 0.0 2.712 5.507 5.607
17 1 1 0.0 2.23 5.177 6.365
18 1 1 0.0 2.23 5.171 4.851
19 1 2 0.0 5.197 1.713 1.162
20 1 1 0.0 5.223 2.669 1.129
21 1 1 0.0 5.65 1.432 0.367
22 1 2 0.0 5.197 1.731 5.668
23 1 1 0.0 5.652 1.444 4.876
24 1 1 0.0 5.226 2.687 5.629
25 1 2 0.0 1.403 4.611 7.863
26 1 1 0.0 1.366 3.655 7.866
27 1 1 0.0 0.486 4.886 7.861
28 1 2 0.0 1.403 4.593 3.358
29 1 1 0.0 0.486 4.869 3.357
30 1 1 0.0 1.366 3.636 3.362
31 1 2 0.0 2.712 5.489 1.102
32 1 1 0.0 2.226 5.156 1.857
33 1 1 0.0 2.228 5.164 0.342
34 1 2 0.0 2.561 0.893 1.121
35 1 1 0.0 2.606 -0.063 1.114
36 1 1 0.0 3.476 1.175 1.12
37 1 2 0.0 6.49 0.791 3.419
38 1 1 0.0 7.381 1.138 3.386
39 1 1 0.0 6.072 1.127 2.626
40 1 2 0.0 6.49 0.808 7.923
41 1 1 0.0 6.071 1.145 7.131
42 1 1 0.0 7.381 1.155 7.891
43 1 2 0.0 6.587 5.406 7.813
44 1 1 0.0 6.554 6.362 7.85
45 1 1 0.0 6.132 5.12 8.605
46 1 2 0.0 1.271 1.852 7.874
47 1 1 0.0 1.741 1.505 8.632
48 1 1 0.0 1.746 1.507 7.118
49 1 2 0.0 9.094 1.834 3.369
50 1 1 0.0 9.569 1.488 2.613
51 1 1 0.0 9.569 1.495 4.127
52 1 2 0.0 13.099 4.472 1.059
53 1 1 0.0 13.519 4.809 1.852
54 1 1 0.0 12.208 4.818 1.094
55 1 2 0.0 14.409 5.387 3.308
56 1 1 0.0 14.378 6.343 3.342
57 1 1 0.0 13.95 5.105 4.1
58 1 2 0.0 13.099 4.489 5.565
59 1 1 0.0 12.208 4.836 5.6
60 1 1 0.0 13.519 4.827 6.356
61 1 2 0.0 10.384 0.912 5.626
62 1 1 0.0 10.429 -0.045 5.62
63 1 1 0.0 11.299 1.194 5.624
64 1 2 0.0 10.535 5.507 5.607
65 1 1 0.0 10.053 5.177 6.365
66 1 1 0.0 10.053 5.171 4.851
67 1 2 0.0 13.02 1.713 1.162
68 1 1 0.0 13.046 2.669 1.129
69 1 1 0.0 13.472 1.432 0.367
70 1 2 0.0 13.02 1.731 5.668
71 1 1 0.0 13.475 1.444 4.876
72 1 1 0.0 13.049 2.687 5.629
73 1 2 0.0 9.225 4.611 7.863
74 1 1 0.0 9.189 3.655 7.866
75 1 1 0.0 8.309 4.886 7.861
76 1 2 0.0 9.225 4.593 3.358
77 1 1 0.0 8.309 4.869 3.357
78 1 1 0.0 9.189 3.636 3.362
79 1 2 0.0 10.535 5.489 1.102
80 1 1 0.0 10.049 5.156 1.857
81 1 1 0.0 10.051 5.164 0.342
82 1 2 0.0 10.384 0.893 1.121
83 1 1 0.0 10.429 -0.063 1.114
84 1 1 0.0 11.299 1.175 1.12
85 1 2 0.0 14.313 0.791 3.419
86 1 1 0.0 15.204 1.138 3.386
87 1 1 0.0 13.895 1.127 2.626
88 1 2 0.0 14.313 0.808 7.923
89 1 1 0.0 13.894 1.145 7.131
90 1 1 0.0 15.204 1.155 7.891
91 1 2 0.0 14.41 5.406 7.813
92 1 1 0.0 14.377 6.362 7.85
93 1 1 0.0 13.955 5.12 8.605
94 1 2 0.0 9.094 1.852 7.874
95 1 1 0.0 9.563 1.505 8.632
96 1 1 0.0 9.569 1.507 7.118
97 1 2 0.0 16.917 1.834 3.369
98 1 1 0.0 17.392 1.488 2.613
99 1 1 0.0 17.392 1.495 4.127
100 1 2 0.0 20.922 4.472 1.059
101 1 1 0.0 21.341 4.809 1.852
102 1 1 0.0 20.03 4.818 1.094
103 1 2 0.0 22.232 5.387 3.308
104 1 1 0.0 22.201 6.343 3.342
105 1 1 0.0 21.773 5.105 4.1
106 1 2 0.0 20.922 4.489 5.565
107 1 1 0.0 20.03 4.836 5.6
108 1 1 0.0 21.341 4.827 6.356
109 1 2 0.0 18.207 0.912 5.626
110 1 1 0.0 18.251 -0.045 5.62
111 1 1 0.0 19.121 1.194 5.624
112 1 2 0.0 18.358 5.507 5.607
113 1 1 0.0 17.876 5.177 6.365
114 1 1 0.0 17.876 5.171 4.851
115 1 2 0.0 20.843 1.713 1.162
116 1 1 0.0 20.869 2.669 1.129
117 1 1 0.0 21.295 1.432 0.367
118 1 2 0.0 20.843 1.731 5.668
119 1 1 0.0 21.298 1.444 4.876
120 1 1 0.0 20.872 2.687 5.629
121 1 2 0.0 17.048 4.611 7.863
122 1 1 0.0 17.012 3.655 7.866
123 1 1 0.0 16.131 4.886 7.861
124 1 2 0.0 17.048 4.593 3.358
125 1 1 0.0 16.131 4.869 3.357
126 1 1 0.0 17.012 3.636 3.362
127 1 2 0.0 18.358 5.489 1.102
128 1 1 0.0 17.872 5.156 1.857
129 1 1 0.0 17.874 5.164 0.342
130 1 2 0.0 18.207 0.893 1.121
131 1 1 0.0 18.251 -0.063 1.114
132 1 1 0.0 19.121 1.175 1.12
133 1 2 0.0 22.136 0.791 3.419
134 1 1 0.0 23.027 1.138 3.386
135 1 1 0.0 21.718 1.127 2.626
136 1 2 0.0 22.136 0.808 7.923
137 1 1 0.0 21.717 1.145 7.131
138 1 1 0.0 23.027 1.155 7.891
139 1 2 0.0 22.233 5.406 7.813
140 1 1 0.0 22.2 6.362 7.85
141 1 1 0.0 21.778 5.12 8.605
142 1 2 0.0 16.917 1.852 7.874
143 1 1 0.0 17.386 1.505 8.632
144 1 1 0.0 17.392 1.507 7.118
145 1 2 0.0 1.271 9.188 3.369
146 1 1 0.0 1.746 8.842 2.613
147 1 1 0.0 1.746 8.849 4.127
148 1 2 0.0 5.277 11.825 1.059
149 1 1 0.0 5.696 12.162 1.852
150 1 1 0.0 4.385 12.172 1.094
151 1 2 0.0 6.586 12.741 3.308
152 1 1 0.0 6.556 13.697 3.342
153 1 1 0.0 6.127 12.458 4.1
154 1 2 0.0 5.277 11.843 5.565
155 1 1 0.0 4.385 12.189 5.6
156 1 1 0.0 5.696 12.18 6.356
157 1 2 0.0 2.561 8.265 5.626
158 1 1 0.0 2.606 7.309 5.62
159 1 1 0.0 3.476 8.548 5.624
160 1 2 0.0 2.712 12.861 5.607
161 1 1 0.0 2.23 12.53 6.365
162 1 1 0.0 2.23 12.525 4.851
163 1 2 0.0 5.197 9.066 1.162
164 1 1 0.0 5.223 10.023 1.129
165 1 1 0.0 5.65 8.786 0.367
166 1 2 0.0 5.197 9.085 5.668
167 1 1 0.0 5.652 8.798 4.876
168 1 1 0.0 5.226 10.041 5.629
169 1 2 0.0 1.403 11.964 7.863
170 1 1 0.0 1.366 11.008 7.866
171 1 1 0.0 0.486 12.24 7.861
172 1 2 0.0 1.403 11.947 3.358
173 1 1 0.0 0.486 12.222 3.357
174 1 1 0.0 1.366 10.99 3.362
175 1 2 0.0 2.712 12.842 1.102
176 1 1 0.0 2.226 12.51 1.857
177 1 1 0.0 2.228 12.517 0.342
178 1 2 0.0 2.561 8.246 1.121
179 1 1 0.0 2.606 7.29 1.114
180 1 1 0.0 3.476 8.529 1.12
181 1 2 0.0 6.49 8.144 3.419
182 1 1 0.0 7.381 8.491 3.386
183 1 1 0.0 6.072 8.481 2.626
184 1 2 0.0 6.49 8.162 7.923
185 1 1 0.0 6.071 8.499 7.131
186 1 1 0.0 7.381 8.509 7.891
187 1 2 0.0 6.587 12.76 7.813
188 1 1 0.0 6.554 13.716 7.85
189 1 1 0.0 6.132 12.473 8.605
190 1 2 0.0 1.271 9.206 7.874
191 1 1 0.0 1.741 8.858 8.632
192 1 1 0.0 1.746 8.86 7.118
193 1 2 0.0 9.094 9.188 3.369
194 1 1 0.0 9.569 8.842 2.613
195 1 1 0.0 9.569 8.849 4.127
196 1 2 0.0 13.099 11.825 1.059
197 1 1 0.0 13.519 12.162 1.852
198 1 1 0.0 12.208 12.172 1.094
199 1 2 0.0 14.409 12.741 3.308
200 1 1 0.0 14.378 13.697 3.342
201 1 1 0.0 13.95 12.458 4.1
202 1 2 0.0 13.099 11.843 5.565
203 1 1 0.0 12.208 12.189 5.6
204 1 1 0.0 13.519 12.18 6.356
205 1 2 0.0 10.384 8.265 5.626
206 1 1 0.0 10.429 7.309 5.62
207 1 1 0.0 11.299 8.548 5.624
208 1 2 0.0 10.535 12.861 5.607
209 1 1 0.0 10.053 12.53 6.365
210 1 1 0.0 10.053 12.525 4.851
211 1 2 0.0 13.02 9.066 1.162
212 1 1 0.0 13.046 10.023 1.129
213 1 1 0.0 13.472 8.786 0.367
214 1 2 0.0 13.02 9.085 5.668
215 1 1 0.0 13.475 8.798 4.876
216 1 1 0.0 13.049 10.041 5.629
217 1 2 0.0 9.225 11.964 7.863
218 1 1 0.0 9.189 11.008 7.866
219 1 1 0.0 8.309 12.24 7.861
220 1 2 0.0 9.225 11.947 3.358
221 1 1 0.0 8.309 12.222 3.357
222 1 1 0.0 9.189 10.99 3.362
223 1 2 0.0 10.535 12.842 1.102
224 1 1 0.0 10.049 12.51 1.857
225 1 1 0.0 10.051 12.517 0.342
226 1 2 0.0 10.384 8.246 1.121
227 1 1 0.0 10.429 7.29 1.114
228 1 1 0.0 11.299 8.529 1.12
229 1 2 0.0 14.313 8.144 3.419
230 1 1 0.0 15.204 8.491 3.386
231 1 1 0.0 13.895 8.481 2.626
232 1 2 0.0 14.313 8.162 7.923
233 1 1 0.0 13.894 8.499 7.131
234 1 1 0.0 15.204 8.509 7.891
235 1 2 0.0 14.41 12.76 7.813
236 1 1 0.0 14.377 13.716 7.85
237 1 1 0.0 13.955 12.473 8.605
238 1 2 0.0 9.094 9.206 7.874
239 1 1 0.0 9.563 8.858 8.632
240 1 1 0.0 9.569 8.86 7.118
241 1 2 0.0 16.917 9.188 3.369
242 1 1 0.0 17.392 8.842 2.613
243 1 1 0.0 17.392 8.849 4.127
244 1 2 0.0 20.922 11.825 1.059
245 1 1 0.0 21.341 12.162 1.852
246 1 1 0.0 20.03 12.172 1.094
247 1 2 0.0 22.232 12.741 3.308
248 1 1 0.0 22.201 13.697 3.342
249 1 1 0.0 21.773 12.458 4.1
250 1 2 0.0 20.922 11.843 5.565
251 1 1 0.0 20.03 12.189 5.6
252 1 1 0.0 21.341 12.18 6.356
253 1 2 0.0 18.207 8.265 5.626
254 1 1 0.0 18.251 7.309 5.62
255 1 1 0.0 19.121 8.548 5.624
256 1 2 0.0 18.358 12.861 5.607
257 1 1 0.0 17.876 12.53 6.365
258 1 1 0.0 17.876 12.525 4.851
259 1 2 0.0 20.843 9.066 1.162
260 1 1 0.0 20.869 10.023 1.129
261 1 1 0.0 21.295 8.786 0.367
262 1 2 0.0 20.843 9.085 5.668
263 1 1 0.0 21.298 8.798 4.876
264 1 1 0.0 20.872 10.041 5.629
265 1 2 0.0 17.048 11.964 7.863
266 1 1 0.0 17.012 11.008 7.866
267 1 1 0.0 16.131 12.24 7.861
268 1 2 0.0 17.048 11.947 3.358
269 1 1 0.0 16.131 12.222 3.357
270 1 1 0.0 17.012 10.99 3.362
271 1 2 0.0 18.358 12.842 1.102
272 1 1 0.0 17.872 12.51 1.857
273 1 1 0.0 17.874 12.517 0.342
274 1 2 0.0 18.207 8.246 1.121
275 1 1 0.0 18.251 7.29 1.114
276 1 1 0.0 19.121 8.529 1.12
277 1 2 0.0 22.136 8.144 3.419
278 1 1 0.0 23.027 8.491 3.386
279 1 1 0.0 21.718 8.481 2.626
280 1 2 0.0 22.136 8.162 7.923
281 1 1 0.0 21.717 8.499 7.131
282 1 1 0.0 23.027 8.509 7.891
283 1 2 0.0 22.233 12.76 7.813
284 1 1 0.0 22.2 13.716 7.85
285 1 1 0.0 21.778 12.473 8.605
286 1 2 0.0 16.917 9.206 7.874
287 1 1 0.0 17.386 8.858 8.632
288 1 1 0.0 17.392 8.86 7.118
289 1 2 0.0 1.271 16.541 3.369
290 1 1 0.0 1.746 16.196 2.613
291 1 1 0.0 1.746 16.202 4.127
292 1 2 0.0 5.277 19.179 1.059
293 1 1 0.0 5.696 19.516 1.852
294 1 1 0.0 4.385 19.525 1.094
295 1 2 0.0 6.586 20.094 3.308
296 1 1 0.0 6.556 21.05 3.342
297 1 1 0.0 6.127 19.812 4.1
298 1 2 0.0 5.277 19.197 5.565
299 1 1 0.0 4.385 19.543 5.6
300 1 1 0.0 5.696 19.534 6.356
301 1 2 0.0 2.561 15.619 5.626
302 1 1 0.0 2.606 14.662 5.62
303 1 1 0.0 3.476 15.901 5.624
304 1 2 0.0 2.712 20.214 5.607
305 1 1 0.0 2.23 19.884 6.365
306 1 1 0.0 2.23 19.878 4.851
307 1 2 0.0 5.197 16.42 1.162
308 1 1 0.0 5.223 17.376 1.129
309 1 1 0.0 5.65 16.14 0.367
310 1 2 0.0 5.197 16.438 5.668
311 1 1 0.0 5.652 16.151 4.876
312 1 1 0.0 5.226 17.394 5.629
313 1 2 0.0 1.403 19.318 7.863
314 1 1 0.0 1.366 18.362 7.866
315 1 1 0.0 0.486 19.594 7.861
316 1 2 0.0 1.403 19.3 3.358
317 1 1 0.0 0.486 19.576 3.357
318 1 1 0.0 1.366 18.343 3.362
319 1 2 0.0 2.712 20.196 1.102
320 1 1 0.0 2.226 19.863 1.857
321 1 1 0.0 2.228 19.871 0.342
322 1 2 0.0 2.561 15.6 1.121
323 1 1 0.0 2.606 14.644 1.114
324 1 1 0.0 3.476 15.882 1.12
325 1 2 0.0 6.49 15.498 3.419
326 1 1 0.0 7.381 15.845 3.386
327 1 1 0.0 6.072 15.834 2.626
328 1 2 0.0 6.49 15.515 7.923
329 1 1 0.0 6.071 15.852 7.131
330 1 1 0.0 7.381 15.862 7.891
331 1 2 0.0 6.587 20.113 7.813
332 1 1 0.0 6.554 21.069 7.85
333 1 1 0.0 6.132 19.827 8.605
334 1 2 0.0 1.271 16.56 7.874
335 1 1 0.0 1.741 16.212 8.632
336 1 1 0.0 1.746 16.214 7.118
337 1 2 0.0 9.094 16.541 3.369
338 1 1 0.0 9.569 16.196 2.613
339 1 1 0.0 9.569 16.202 4.127
340 1 2 0.0 13.099 19.179 1.059
341 1 1 0.0 13.519 19.516 1.852
342 1 1 0.0 12.208 19.525 1.094
343 1 2 0.0 14.409 20.094 3.308
344 1 1 0.0 14.378 21.05 3.342
345 1 1 0.0 13.95 19.812 4.1
346 1 2 0.0 13.099 19.197 5.565
347 1 1 0.0 12.208 19.543 5.6
348 1 1 0.0 13.519 19.534 6.356
349 1 2 0.0 10.384 15.619 5.626
350 1 1 0.0 10.429 14.662 5.62
351 1 1 0.0 11.299 15.901 5.624
352 1 2 0.0 10.535 20.214 5.607
353 1 1 0.0 10.053 19.884 6.365
354 1 1 0.0 10.053 19.878 4.851
355 1 2 0.0 13.02 16.42 1.162
356 1 1 0.0 13.046 17.376 1.129
357 1 1 0.0 13.472 16.14 0.367
358 1 2 0.0 13.02 16.438 5.668
359 1 1 0.0 13.475 16.151 4.876
360 1 1 0.0 13.049 17.394 5.629
361 1 2 0.0 9.225 19.318 7.863
362 1 1 0.0 9.189 18.362 7.866
363 1 1 0.0 8.309 19.594 7.861
364 1 2 0.0 9.225 19.3 3.358
365 1 1 0.0 8.309 19.576 3.357
366 1 1 0.0 9.189 18.343 3.362
367 1 2 0.0 10.535 20.196 1.102
368 1 1 0.0 10.049 19.863 1.857
369 1 1 0.0 10.051 19.871 0.342
370 1 2 0.0 10.384 15.6 1.121
371 1 1 0.0 10.429 14.644 1.114
372 1 1 0.0 11.299 15.882 1.12
373 1 2 0.0 14.313 15.498 3.419
374 1 1 0.0 15.204 15.845 3.386
375 1 1 0.0 13.895 15.834 2.626
376 1 2 0.0 14.313 15.515 7.923
377 1 1 0.0 13.894 15.852 7.131
378 1 1 0.0 15.204 15.862 7.891
379 1 2 0.0 14.41 20.113 7.813
380 1 1 0.0 14.377 21.069 7.85
381 1 1 0.0 13.955 19.827 8.605
382 1 2 0.0 9.094 16.56 7.874
383 1 1 0.0 9.563 16.212 8.632
384 1 1 0.0 9.569 16.214 7.118
385 1 2 0.0 16.917 16.541 3.369
386 1 1 0.0 17.392 16.196 2.613
387 1 1 0.0 17.392 16.202 4.127
388 1 2 0.0 20.922 19.179 1.059
389 1 1 0.0 21.341 19.516 1.852
390 1 1 0.0 20.03 19.525 1.094
391 1 2 0.0 22.232 20.094 3.308
392 1 1 0.0 22.201 21.05 3.342
393 1 1 0.0 21.773 19.812 4.1
394 1 2 0.0 20.922 19.197 5.565
395 1 1 0.0 20.03 19.543 5.6
396 1 1 0.0 21.341 19.534 6.356
397 1 2 0.0 18.207 15.619 5.626
398 1 1 0.0 18.251 14.662 5.62
399 1 1 0.0 19.121 15.901 5.624
400 1 2 0.0 18.358 20.214 5.607
401 1 1 0.0 17.876 19.884 6.365
402 1 1 0.0 17.876 19.878 4.851
403 1 2 0.0 20.843 16.42 1.162
404 1 1 0.0 20.869 17.376 1.129
405 1 1 0.0 21.295 16.14 0.367
406 1 2 0.0 20.843 16.438 5.668
407 1 1 0.0 21.298 16.151 4.876
408 1 1 0.0 20.872 17.394 5.629
409 1 2 0.0 17.048 19.318 7.863
410 1 1 0.0 17.012 18.362 7.866
411 1 1 0.0 16.131 19.594 7.861
412 1 2 0.0 17.048 19.3 3.358
413 1 1 0.0 16.131 19.576 3.357
414 1 1 0.0 17.012 18.343 3.362
415 1 2 0.0 18.358 20.196 1.102
416 1 1 0.0 17.872 19.863 1.857
417 1 1 0.0 17.874 19.871 0.342
418 1 2 0.0 18.207 15.6 1.121
419 1 1 0.0 18.251 14.644 1.114
420 1 1 0.0 19.121 15.882 1.12
421 1 2 0.0 22.136 15.498 3.419
422 1 1 0.0 23.027 15.845 3.386
423 1 1 0.0 21.718 15.834 2.626
424 1 2 0.0 22.136 15.515 7.923
425 1 1 0.0 21.717 15.852 7.131
426 1 1 0.0 23.027 15.862 7.891
427 1 2 0.0 22.233 20.113 7.813
428 1 1 0.0 22.2 21.069 7.85
429 1 1 0.0 21.778 19.827 8.605
430 1 2 0.0 16.917 16.56 7.874
431 1 1 0.0 17.386 16.212 8.632
432 1 1 0.0 17.392 16.214 7.118
433 1 2 0.0 1.271 1.834 12.405
434 1 1 0.0 1.746 1.488 11.65
435 1 1 0.0 1.746 1.495 13.163
436 1 2 0.0 5.277 4.472 10.096
437 1 1 0.0 5.696 4.809 10.888
438 1 1 0.0 4.385 4.818 10.131
439 1 2 0.0 6.586 5.387 12.345
440 1 1 0.0 6.556 6.343 12.378
441 1 1 0.0 6.127 5.105 13.136
442 1 2 0.0 5.277 4.489 14.601
443 1 1 0.0 4.385 4.836 14.636
444 1 1 0.0 5.696 4.827 15.393
445 1 2 0.0 2.561 0.912 14.663
446 1 1 0.0 2.606 -0.045 14.656
447 1 1 0.0 3.476 1.194 14.661
448 1 2 0.0 2.712 5.507 14.644
449 1 1 0.0 2.23 5.177 15.402
450 1 1 0.0 2.23 5.171 13.887
451 1 2 0.0 5.197 1.713 10.199
452 1 1 0.0 5.223 2.669 10.165
453 1 1 0.0 5.65 1.432 9.403
454 1 2 0.0 5.197 1.731 14.704
455 1 1 0.0 5.652 1.444 13.913
456 1 1 0.0 5.226 2.687 14.665
457 1 2 0.0 1.403 4.611 16.899
458 1 1 0.0 1.366 3.655 16.903
459 1 1 0.0 0.486 4.886 16.897
460 1 2 0.0 1.403 4.593 12.394
461 1 1 0.0 0.486 4.869 12.394
462 1 1 0.0 1.366 3.636 12.398
463 1 2 0.0 2.712 5.489 10.138
464 1 1 0.0 2.226 5.156 10.894
465 1 1 0.0 2.228 5.164 9.379
466 1 2 0.0 2.561 0.893 10.157
467 1 1 0.0 2.606 -0.063 10.151
468 1 1 0.0 3.476 1.175 10.156
469 1 2 0.0 6.49 0.791 12.455
470 1 1 0.0 7.381 1.138 12.423
471 1 1 0.0 6.072 1.127 11.663
472 1 2 0.0 6.49 0.808 16.96
473 1 1 0.0 6.071 1.145 16.167
474 1 1 0.0 7.381 1.155 16.927
475 1 2 0.0 6.587 5.406 16.849
476 1 1 0.0 6.554 6.362 16.887
477 1 1 0.0 6.132 5.12 17.641
478 1 2 0.0 1.271 1.852 16.91
479 1 1 0.0 1.741 1.505 17.668
480 1 1 0.0 1.746 1.507 16.155
481 1 2 0.0 9.094 1.834 12.405
482 1 1 0.0 9.569 1.488 11.65
483 1 1 0.0 9.569 1.495 13.163
484 1 2 0.0 13.099 4.472 10.096
485 1 1 0.0 13.519 4.809 10.888
486 1 1 0.0 12.208 4.818 10.131
487 1 2 0.0 14.409 5.387 12.345
488 1 1 0.0 14.378 6.343 12.378
489 1 1 0.0 13.95 5.105 13.136
490 1 2 0.0 13.099 4.489 14.601
491 1 1 0.0 12.208 4.836 14.636
492 1 1 0.0 13.519 4.827 15.393
493 1 2 0.0 10.384 0.912 14.663
494 1 1 0.0 10.429 -0.045 14.656
495 1 1 0.0 11.299 1.194 14.661
496 1 2 0.0 10.535 5.507 14.644
497 1 1 0.0 10.053 5.177 15.402
498 1 1 0.0 10.053 5.171 13.887
499 1 2 0.0 13.02 1.713 10.199
500 1 1 0.0 13.046 2.669 10.165
501 1 1 0.0 13.472 1.432 9.403
502 1 2 0.0 13.02 1.731 14.704
503 1 1 0.0 13.475 1.444 13.913
504 1 1 0.0 13.049 2.687 14.665
505 1 2 0.0 9.225 4.611 16.899
506 1 1 0.0 9.189 3.655 16.903
507 1 1 0.0 8.309 4.886 16.897
508 1 2 0.0 9.225 4.593 12.394
509 1 1 0.0 8.309 4.869 12.394
510 1 1 0.0 9.189 3.636 12.398
511 1 2 0.0 10.535 5.489 10.138
512 1 1 0.0 10.049 5.156 10.894
513 1 1 0.0 10.051 5.164 9.379
514 1 2 0.0 10.384 0.893 10.157
515 1 1 0.0 10.429 -0.063 10.151
516 1 1 0.0 11.299 1.175 10.156
517 1 2 0.0 14.313 0.791 12.455
518 1 1 0.0 15.204 1.138 12.423
519 1 1 0.0 13.895 1.127 11.663
520 1 2 0.0 14.313 0.808 16.96
521 1 1 0.0 13.894 1.145 16.167
522 1 1 0.0 15.204 1.155 16.927
523 1 2 0.0 14.41 5.406 16.849
524 1 1 0.0 14.377 6.362 16.887
525 1 1 0.0 13.955 5.12 17.641
526 1 2 0.0 9.094 1.852 16.91
527 1 1 0.0 9.563 1.505 17.668
528 1 1 0.0 9.569 1.507 16.155
529 1 2 0.0 16.917 1.834 12.405
530 1 1 0.0 17.392 1.488 11.65
531 1 1 0.0 17.392 1.495 13.163
532 1 2 0.0 20.922 4.472 10.096
533 1 1 0.0 21.341 4.809 10.888
534 1 1 0.0 20.03 4.818 10.131
535 1 2 0.0 22.232 5.387 12.345
536 1 1 0.0 22.201 6.343 12.378
537 1 1 0.0 21.773 5.105 13.136
538 1 2 0.0 20.922 4.489 14.601
539 1 1 0.0 20.03 4.836 14.636
540 1 1 0.0 21.341 4.827 15.393
541 1 2 0.0 18.207 0.912 14.663
542 1 1 0.0 18.251 -0.045 14.656
543 1 1 0.0 19.121 1.194 14.661
544 1 2 0.0 18.358 5.507 14.644
545 1 1 0.0 17.876 5.177 15.402
546 1 1 0.0 17.876 5.171 13.887
547 1 2 0.0 20.843 1.713 10.199
548 1 1 0.0 20.869 2.669 10.165
549 1 1 0.0 21.295 1.432 9.403
550 1 2 0.0 20.843 1.731 14.704
551 1 1 0.0 21.298 1.444 13.913
552 1 1 0.0 20.872 2.687 14.665
553 1 2 0.0 17.048 4.611 16.899
554 1 1 0.0 17.012 3.655 16.903
555 1 1 0.0 16.131 4.886 16.897
556 1 2 0.0 17.048 4.593 12.394
557 1 1 0.0 16.131 4.869 12.394
558 1 1 0.0 17.012 3.636 12.398
559 1 2 0.0 18.358 5.489 10.138
560 1 1 0.0 17.872 5.156 10.894
561 1 1 0.0 17.874 5.164 9.379
562 1 2 0.0 18.207 0.893 10.157
563 1 1 0.0 18.251 -0.063 10.151
564 1 1 0.0 19.121 1.175 10.156
565 1 2 0.0 22.136 0.791 12.455
566 1 1 0.0 23.027 1.138 12.423
567 1 1 0.0 21.718 1.127 11.663
568 1 2 0.0 22.136 0.808 16.96
569 1 1 0.0 21.717 1.145 16.167
570 1 1 0.0 23.027 1.155 16.927
571 1 2 0.0 22.233 5.406 16.849
572 1 1 0.0 22.2 6.362 16.887
573 1 1 0.0 21.778 5.12 17.641
574 1 2 0.0 16.917 1.852 16.91
575 1 1 0.0 17.386 1.505 17.668
576 1 1 0.0 17.392 1.507 16.155
577 1 2 0.0 1.271 9.188 12.405
578 1 1 0.0 1.746 8.842 11.65
579 1 1 0.0 1.746 8.849 13.163
580 1 2 0.0 5.277 11.825 10.096
581 1 1 0.0 5.696 12.162 10.888
582 1 1 0.0 4.385 12.172 10.131
583 1 2 0.0 6.586 12.741 12.345
584 1 1 0.0 6.556 13.697 12.378
585 1 1 0.0 6.127 12.458 13.136
586 1 2 0.0 5.277 11.843 14.601
587 1 1 0.0 4.385 12.189 14.636
588 1 1 0.0 5.696 12.18 15.393
589 1 2 0.0 2.561 8.265 14.663
590 1 1 0.0 2.606 7.309 14.656
591 1 1 0.0 3.476 8.548 14.661
592 1 2 0.0 2.712 12.861 14.644
593 1 1 0.0 2.23 12.53 15.402
594 1 1 0.0 2.23 12.525 13.887
595 1 2 0.0 5.197 9.066 10.199
596 1 1 0.0 5.223 10.023 10.165
597 1 1 0.0 5.65 8.786 9.403
598 1 2 0.0 5.197 9.085 14.704
599 1 1 0.0 5.652 8.798 13.913
600 1 1 0.0 5.226 10.041 14.665
601 1 2 0.0 1.403 11.964 16.899
602 1 1 0.0 1.366 11.008 16.903
603 1 1 0.0 0.486 12.24 16.897
604 1 2 0.0 1.403 11.947 12.394
605 1 1 0.0 0.486 12.222 12.394
606 1 1 0.0 1.366 10.99 12.398
607 1 2 0.0 2.712 12.842 10.138
608 1 1 0.0 2.226 12.51 10.894
609 1 1 0.0 2.228 12.517 9.379
610 1 2 0.0 2.561 8.246 10.157
611 1 1 0.0 2.606 7.29 10.151
612 1 1 0.0 3.476 8.529 10.156
613 1 2 0.0 6.49 8.144 12.455
614 1 1 0.0 7.381 8.491 12.423
615 1 1 0.0 6.072 8.481 11.663
616 1 2 0.0 6.49 8.162 16.96
617 1 1 0.0 6.071 8.499 16.167
618 1 1 0.0 7.381 8.509 16.927
619 1 2 0.0 6.587 12.76 16.849
620 1 1 0.0 6.554 13.716 16.887
621 1 1 0.0 6.132 12.473 17.641
622 1 2 0.0 1.271 9.206 16.91
623 1 1 0.0 1.741 8.858 17.668
624 1 1 0.0 1.746 8.86 16.155
625 1 2 0.0 9.094 9.188 12.405
626 1 1 0.0 9.569 8.842 11.65
627 1 1 0.0 9.569 8.849 13.163
628 1 2 0.0 13.099 11.825 10.096
629 1 1 0.0 13.519 12.162 10.888
630 1 1 0.0 12.208 12.172 10.131
631 1 2 0.0 14.409 12.741 12.345
632 1 1 0.0 14.378 13.697 12.378
633 1 1 0.0 13.95 12.458 13.136
634 1 2 0.0 13.099 11.843 14.601
635 1 1 0.0 12.208 12.189 14.636
636 1 1 0.0 13.519 12.18 15.393
637 1 2 0.0 10.384 8.265 14.663
638 1 1 0.0 10.429 7.309 14.656
639 1 1 0.0 11.299 8.548 14.661
640 1 2 0.0 10.535 12.861 14.644
641 1 1 0.0 10.053 12.53 15.402
642 1 1 0.0 10.053 12.525 13.887
643 1 2 0.0 13.02 9.066 10.199
644 1 1 0.0 13.046 10.023 10.165
645 1 1 0.0 13.472 8.786 9.403
646 1 2 0.0 13.02 9.085 14.704
647 1 1 0.0 13.475 8.798 13.913
648 1 1 0.0 13.049 10.041 14.665
649 1 2 0.0 9.225 11.964 16.899
650 1 1 0.0 9.189 11.008 16.903
651 1 1 0.0 8.309 12.24 16.897
652 1 2 0.0 9.225 11.947 12.394
653 1 1 0.0 8.309 12.222 12.394
654 1 1 0.0 9.189 10.99 12.398
655 1 2 0.0 10.535 12.842 10.138
656 1 1 0.0 10.049 12.51 10.894
657 1 1 0.0 10.051 12.517 9.379
658 1 2 0.0 10.384 8.246 10.157
659 1 1 0.0 10.429 7.29 10.151
660 1 1 0.0 11.299 8.529 10.156
661 1 2 0.0 14.313 8.144 12.455
662 1 1 0.0 15.204 8.491 12.423
663 1 1 0.0 13.895 8.481 11.663
664 1 2 0.0 14.313 8.162 16.96
665 1 1 0.0 13.894 8.499 16.167
666 1 1 0.0 15.204 8.509 16.927
667 1 2 0.0 14.41 12.76 16.849
668 1 1 0.0 14.377 13.716 16.887
669 1 1 0.0 13.955 12.473 17.641
670 1 2 0.0 9.094 9.206 16.91
671 1 1 0.0 9.563 8.858 17.668
672 1 1 0.0 9.569 8.86 16.155
673 1 2 0.0 16.917 9.188 12.405
674 1 1 0.0 17.392 8.842 11.65
675 1 1 0.0 17.392 8.849 13.163
676 1 2 0.0 20.922 11.825 10.096
677 1 1 0.0 21.341 12.162 10.888
678 1 1 0.0 20.03 12.172 10.131
679 1 2 0.0 22.232 12.741 12.345
680 1 1 0.0 22.201 13.697 12.378
681 1 1 0.0 21.773 12.458 13.136
682 1 2 0.0 20.922 11.843 14.601
683 1 1 0.0 20.03 12.189 14.636
684 1 1 0.0 21.341 12.18 15.393
685 1 2 0.0 18.207 8.265 14.663
686 1 1 0.0 18.251 7.309 14.656
687 1 1 0.0 19.121 8.548 14.661
688 1 2 0.0 18.358 12.861 14.644
689 1 1 0.0 17.876 12.53 15.402
690 1 1 0.0 17.876 12.525 13.887
691 1 2 0.0 20.843 9.066 10.199
692 1 1 0.0 20.869 10.023 10.165
693 1 1 0.0 21.295 8.786 9.403
694 1 2 0.0 20.843 9.085 14.704
695 1 1 0.0 21.298 8.798 13.913
696 1 1 0.0 20.872 10.041 14.665
697 1 2 0.0 17.048 11.964 16.899
698 1 1 0.0 17.012 11.008 16.903
699 1 1 0.0 16.131 12.24 16.897
700 1 2 0.0 17.048 11.947 12.394
701 1 1 0.0 16.131 12.222 12.394
702 1 1 0.0 17.012 10.99 12.398
703 1 2 0.0 18.358 12.842 10.138
704 1 1 0.0 17.872 12.51 10.894
705 1 1 0.0 17.874 12.517 9.379
706 1 2 0.0 18.207 8.246 10.157
707 1 1 0.0 18.251 7.29 10.151
708 1 1 0.0 19.121 8.529 10.156
709 1 2 0.0 22.136 8.144 12.455
710 1 1 0.0 23.027 8.491 12.423
711 1 1 0.0 21.718 8.481 11.663
712 1 2 0.0 22.136 8.162 16.96
713 1 1 0.0 21.717 8.499 16.167
714 1 1 0.0 23.027 8.509 16.927
715 1 2 0.0 22.233 12.76 16.849
716 1 1 0.0 22.2 13.716 16.887
717 1 1 0.0 21.778 12.473 17.641
718 1 2 0.0 16.917 9.206 16.91
719 1 1 0.0 17.386 8.858 17.668
720 1 1 0.0 17.392 8.86 16.155
721 1 2 0.0 1.271 16.541 12.405
722 1 1 0.0 1.746 16.196 11.65
723 1 1 0.0 1.746 16.202 13.163
724 1 2 0.0 5.277 19.179 10.096
725 1 1 0.0 5.696 19.516 10.888
726 1 1 0.0 4.385 19.525 10.131
727 1 2 0.0 6.586 20.094 12.345
728 1 1 0.0 6.556 21.05 12.378
729 1 1 0.0 6.127 19.812 13.136
730 1 2 0.0 5.277 19.197 14.601
731 1 1 0.0 4.385 19.543 14.636
732 1 1 0.0 5.696 19.534 15.393
733 1 2 0.0 2.561 15.619 14.663
734 1 1 0.0 2.606 14.662 14.656
735 1 1 0.0 3.476 15.901 14.661
736 1 2 0.0 2.712 20.214 14.644
737 1 1 0.0 2.23 19.884 15.402
738 1 1 0.0 2.23 19.878 13.887
739 1 2 0.0 5.197 16.42 10.199
740 1 1 0.0 5.223 17.376 10.165
741 1 1 0.0 5.65 16.14 9.403
742 1 2 0.0 5.197 16.438 14.704
743 1 1 0.0 5.652 16.151 13.913
744 1 1 0.0 5.226 17.394 14.665
745 1 2 0.0 1.403 19.318 16.899
746 1 1 0.0 1.366 18.362 16.903
747 1 1 0.0 0.486 19.594 16.897
748 1 2 0.0 1.403 19.3 12.394
749 1 1 0.0 0.486 19.576 12.394
750 1 1 0.0 1.366 18.343 12.398
751 1 2 0.0 2.712 20.196 10.138
752 1 1 0.0 2.226 19.863 10.894
753 1 1 0.0 2.228 19.871 9.379
754 1 2 0.0 2.561 15.6 10.157
755 1 1 0.0 2.606 14.644 10.151
756 1 1 0.0 3.476 15.882 10.156
757 1 2 0.0 6.49 15.498 12.455
758 1 1 0.0 7.381 15.845 12.423
759 1 1 0.0 6.072 15.834 11.663
760 1 2 0.0 6.49 15.515 16.96
761 1 1 0.0 6.071 15.852 16.167
762 1 1 0.0 7.381 15.862 16.927
763 1 2 0.0 6.587 20.113 16.849
764 1 1 0.0 6.554 21.069 16.887
765 1 1 0.0 6.132 19.827 17.641
766 1 2 0.0 1.271 16.56 16.91
767 1 1 0.0 1.741 16.212 17.668
768 1 1 0.0 1.746 16.214 16.155
769 1 2 0.0 9.094 16.541 12.405
770 1 1 0.0 9.569 16.196 11.65
771 1 1 0.0 9.569 16.202 13.163
772 1 2 0.0 13.099 19.179 10.096
773 1 1 0.0 13.519 19.516 10.888
774 1 1 0.0 12.208 19.525 10.131
775 1 2 0.0 14.409 20.094 12.345
776 1 1 0.0 14.378 21.05 12.378
777 1 1 0.0 13.95 19.812 13.136
778 1 2 0.0 13.099 19.197 14.601
779 1 1 0.0 12.208 19.543 14.636
780 1 1 0.0 13.519 19.534 15.393
781 1 2 0.0 10.384 15.619 14.663
782 1 1 0.0 10.429 14.662 14.656
783 1 1 0.0 11.299 15.901 14.661
784 1 2 0.0 10.535 20.214 14.644
785 1 1 0.0 10.053 19.884 15.402
786 1 1 0.0 10.053 19.878 13.887
787 1 2 0.0 13.02 16.42 10.199
788 1 1 0.0 13.046 17.376 10.165
789 1 1 0.0 13.472 16.14 9.403
790 1 2 0.0 13.02 16.438 14.704
791 1 1 0.0 13.475 16.151 13.913
792 1 1 0.0 13.049 17.394 14.665
793 1 2 0.0 9.225 19.318 16.899
794 1 1 0.0 9.189 18.362 16.903
795 1 1 0.0 8.309 19.594 16.897
796 1 2 0.0 9.225 19.3 12.394
797 1 1 0.0 8.309 19.576 12.394
798 1 1 0.0 9.189 18.343 12.398
799 1 2 0.0 10.535 20.196 10.138
800 1 1 0.0 10.049 19.863 10.894
801 1 1 0.0 10.051 19.871 9.379
802 1 2 0.0 10.384 15.6 10.157
803 1 1 0.0 10.429 14.644 10.151
804 1 1 0.0 11.299 15.882 10.156
805 1 2 0.0 14.313 15.498 12.455
806 1 1 0.0 15.204 15.845 12.423
807 1 1 0.0 13.895 15.834 11.663
808 1 2 0.0 14.313 15.515 16.96
809 1 1 0.0 13.894 15.852 16.167
810 1 1 0.0 15.204 15.862 16.927
811 1 2 0.0 14.41 20.113 16.849
812 1 1 0.0 14.377 21.069 16.887
813 1 1 0.0 13.955 19.827 17.641
814 1 2 0.0 9.094 16.56 16.91
815 1 1 0.0 9.563 16.212 17.668
816 1 1 0.0 9.569 16.214 16.155
817 1 2 0.0 16.917 16.541 12.405
818 1 1 0.0 17.392 16.196 11.65
819 1 1 0.0 17.392 16.202 13.163
820 1 2 0.0 20.922 19.179 10.096
821 1 1 0.0 21.341 19.516 10.888
822 1 1 0.0 20.03 19.525 10.131
823 1 2 0.0 22.232 20.094 12.345
824 1 1 0.0 22.201 21.05 12.378
825 1 1 0.0 21.773 19.812 13.136
826 1 2 0.0 20.922 19.197 14.601
827 1 1 0.0 20.03 19.543 14.636
828 1 1 0.0 21.341 19.534 15.393
829 1 2 0.0 18.207 15.619 14.663
830 1 1 0.0 18.251 14.662 14.656
831 1 1 0.0 19.121 15.901 14.661
832 1 2 0.0 18.358 20.214 14.644
833 1 1 0.0 17.876 19.884 15.402
834 1 1 0.0 17.876 19.878 13.887
835 1 2 0.0 20.843 16.42 10.199
836 1 1 0.0 20.869 17.376 10.165
837 1 1 0.0 21.295 16.14 9.403
838 1 2 0.0 20.843 16.438 14.704
839 1 1 0.0 21.298 16.151 13.913
840 1 1 0.0 20.872 17.394 14.665
841 1 2 0.0 17.048 19.318 16.899
842 1 1 0.0 17.012 18.362 16.903
843 1 1 0.0 16.131 19.594 16.897
844 1 2 0.0 17.048 19.3 12.394
845 1 1 0.0 16.131 19.576 12.394
846 1 1 0.0 17.012 18.343 12.398
847 1 2 0.0 18.358 20.196 10.138
848 1 1 0.0 17.872 19.863 10.894
849 1 1 0.0 17.874 19.871 9.379
850 1 2 0.0 18.207 15.6 10.157
851 1 1 0.0 18.251 14.644 10.151
852 1 1 0.0 19.121 15.882 10.156
853 1 2 0.0 22.136 15.498 12.455
854 1 1 0.0 23.027 15.845 12.423
855 1 1 0.0 21.718 15.834 11.663
856 1 2 0.0 22.136 15.515 16.96
857 1 1 0.0 21.717 15.852 16.167
858 1 1 0.0 23.027 15.862 16.927
859 1 2 0.0 22.233 20.113 16.849
860 1 1 0.0 22.2 21.069 16.887
861 1 1 0.0 21.778 19.827 17.641
862 1 2 0.0 16.917 16.56 16.91
863 1 1 0.0 17.386 16.212 17.668
864 1 1 0.0 17.392 16.214 16.155
865 1 2 0.0 1.271 1.834 21.442
866 1 1 0.0 1.746 1.488 20.686
867 1 1 0.0 1.746 1.495 22.2
868 1 2 0.0 5.277 4.472 19.132
869 1 1 0.0 5.696 4.809 19.925
870 1 1 0.0 4.385 4.818 19.167
871 1 2 0.0 6.586 5.387 21.381
872 1 1 0.0 6.556 6.343 21.415
873 1 1 0.0 6.127 5.105 22.173
874 1 2 0.0 5.277 4.489 23.638
875 1 1 0.0 4.385 4.836 23.673
876 1 1 0.0 5.696 4.827 24.429
877 1 2 0.0 2.561 0.912 23.699
878 1 1 0.0 2.606 -0.045 23.693
879 1 1 0.0 3.476 1.194 23.697
880 1 2 0.0 2.712 5.507 23.68
881 1 1 0.0 2.23 5.177 24.438
882 1 1 0.0 2.23 5.171 22.924
883 1 2 0.0 5.197 1.713 19.235
884 1 1 0.0 5.223 2.669 19.202
885 1 1 0.0 5.65 1.432 18.44
886 1 2 0.0 5.197 1.731 23.741
887 1 1 0.0 5.652 1.444 22.949
888 1 1 0.0 5.226 2.687 23.702
889 1 2 0.0 1.403 4.611 25.936
890 1 1 0.0 1.366 3.655 25.939
891 1 1 0.0 0.486 4.886 25.934
892 1 2 0.0 1.403 4.593 21.431
893 1 1 0.0 0.486 4.869 21.43
894 1 1 0.0 1.366 3.636 21.435
895 1 2 0.0 2.712 5.489 19.175
896 1 1 0.0 2.226 5.156 19.93
897 1 1 0.0 2.228 5.164 18.416
898 1 2 0.0 2.561 0.893 19.194
899 1 1 0.0 2.606 -0.063 19.187
900 1 1 0.0 3.476 1.175 19.193
901 1 2 0.0 6.49 0.791 21.492
902 1 1 0.0 7.381 1.138 21.459
903 1 1 0.0 6.072 1.127 20.699
904 1 2 0.0 6.49 0.808 25.996
905 1 1 0.0 6.071 1.145 25.204
906 1 1 0.0 7.381 1.155 25.964
907 1 2 0.0 6.587 5.406 25.886
908 1 1 0.0 6.554 6.362 25.923
909 1 1 0.0 6.132 5.12 26.678
910 1 2 0.0 1.271 1.852 25.947
911 1 1 0.0 1.741 1.505 26.705
912 1 1 0.0 1.746 1.507 25.191
913 1 2 0.0 9.094 1.834 21.442
914 1 1 0.0 9.569 1.488 20.686
915 1 1 0.0 9.569 1.495 22.2
916 1 2 0.0 13.099 4.472 19.132
917 1 1 0.0 13.519 4.809 19.925
918 1 1 0.0 12.208 4.818 19.167
919 1 2 0.0 14.409 5.387 21.381
920 1 1 0.0 14.378 6.343 21.415
921 1 1 0.0 13.95 5.105 22.173
922 1 2 0.0 13.099 4.489 23.638
923 1 1 0.0 12.208 4.836 23.673
924 1 1 0.0 13.519 4.827 24.429
925 1 2 0.0 10.384 0.912 23.699
926 1 1 0.0 10.429 -0.045 23.693
927 1 1 0.0 11.299 1.194 23.697
928 1 2 0.0 10.535 5.507 23.68
929 1 1 0.0 10.053 5.177 24.438
930 1 1 0.0 10.053 5.171 22.924
931 1 2 0.0 13.02 1.713 19.235
932 1 1 0.0 13.046 2.669 19.202
933 1 1 0.0 13.472 1.432 18.44
934 1 2 0.0 13.02 1.731 23.741
935 1 1 0.0 13.475 1.444 22.949
936 1 1 0.0 13.049 2.687 23.702
937 1 2 0.0 9.225 4.611 25.936
938 1 1 0.0 9.189 3.655 25.939
939 1 1 0.0 8.309 4.886 25.934
940 1 2 0.0 9.225 4.593 21.431
941 1 1 0.0 8.309 4.869 21.43
942 1 1 0.0 9.189 3.636 21.435
943 1 2 0.0 10.535 5.489 19.175
944 1 1 0.0 10.049 5.156 19.93
945 1 1 0.0 10.051 5.164 18.416
946 1 2 0.0 10.384 0.893 19.194
947 1 1 0.0 10.429 -0.063 19.187
948 1 1 0.0 11.299 1.175 19.193
949 1 2 0.0 14.313 0.791 21.492
950 1 1 0.0 15.204 1.138 21.459
951 1 1 0.0 13.895 1.127 20.699
952 1 2 0.0 14.313 0.808 25.996
953 1 1 0.0 13.894 1.145 25.204
954 1 1 0.0 15.204 1.155 25.964
955 1 2 0.0 14.41 5.406 25.886
956 1 1 0.0 14.377 6.362 25.923