# LAMMPS data file written by OVITO Basic 3.5.4
2100 atoms
1848 bonds
2 atom types
1 bond types
-3.904 29.086 xlo xhi
-1.82 26.949 ylo yhi
-1.937 12.847 zlo zhi

Masses

1 1.00794  # H
2 15.9994  # O

Atoms  # full

1 1 2 0.0 1.099 -0.981 1.947
2 1 2 0.0 2.94 0.868 2.109
3 1 1 0.0 3.416 1.196 2.856
4 1 1 0.0 1.08 -1.251 2.887
5 1 1 0.0 4.442 2.721 3.35
6 1 1 0.0 -0.561 5.825 -1.937
7 1 1 0.0 2.261 0.139 2.121
8 1 1 0.0 1.665 -0.219 1.995
9 1 1 0.0 2.541 1.464 1.454
10 1 1 0.0 1.341 -1.82 1.506
11 1 1 0.0 -3.904 4.849 4.483
12 1 1 0.0 -0.536 3.267 4.194
13 1 2 0.0 3.098 3.208 0.78
14 1 2 0.0 1.257 5.056 0.619
15 1 1 0.0 0.781 5.384 -0.129
16 1 1 0.0 3.117 2.937 -0.159
17 1 1 0.0 -0.245 6.909 -0.623
18 1 1 0.0 4.757 1.637 4.665
19 1 1 0.0 1.935 4.327 0.606
20 1 1 0.0 2.532 3.969 0.732
21 1 1 0.0 1.656 5.653 1.273
22 1 1 0.0 2.856 2.368 1.222
23 1 1 0.0 8.101 9.037 3.699
24 1 1 0.0 4.733 7.455 3.988
25 1 2 0.0 7.294 5.169 1.947
26 1 2 0.0 5.454 3.32 2.109
27 1 1 0.0 4.977 2.992 2.856
28 1 1 0.0 7.314 5.439 2.887
29 1 1 0.0 3.952 1.467 3.35
30 1 1 0.0 0.561 6.739 -1.937
31 1 1 0.0 6.132 4.049 2.121
32 1 1 0.0 6.729 4.407 1.995
33 1 1 0.0 5.853 2.724 1.454
34 1 1 0.0 7.053 6.008 1.506
35 1 1 0.0 3.904 -0.661 4.483
36 1 1 0.0 0.536 0.921 4.194
37 1 2 0.0 -3.098 9.357 0.78
38 1 2 0.0 -1.257 7.508 0.619
39 1 1 0.0 -0.781 7.18 -0.129
40 1 1 0.0 -3.117 9.627 -0.159
41 1 1 0.0 0.245 5.655 -0.623
42 1 1 0.0 3.636 2.551 4.665
43 1 1 0.0 -1.935 8.237 0.606
44 1 1 0.0 -2.532 8.595 0.732
45 1 1 0.0 -1.656 6.912 1.273
46 1 1 0.0 -2.856 10.196 1.222
47 1 1 0.0 0.293 3.527 3.699
48 1 1 0.0 3.661 5.11 3.988
49 1 2 0.0 7.294 9.357 3.508
50 1 2 0.0 5.454 7.508 3.346
51 1 1 0.0 4.977 7.18 2.599
52 1 1 0.0 7.314 9.627 2.568
53 1 1 0.0 3.952 5.655 2.104
54 1 1 0.0 0.561 2.551 7.392
55 1 1 0.0 6.132 8.237 3.333
56 1 1 0.0 6.729 8.595 3.46
57 1 1 0.0 5.853 6.912 4.001
58 1 1 0.0 7.053 10.196 3.949
59 1 1 0.0 3.904 3.527 0.972
60 1 1 0.0 0.536 5.11 1.261
61 1 2 0.0 -3.098 5.169 4.674
62 1 2 0.0 -1.257 3.32 4.836
63 1 1 0.0 -0.781 2.992 5.584
64 1 1 0.0 -3.117 5.439 5.614
65 1 1 0.0 0.245 1.467 6.078
66 1 1 0.0 3.636 6.739 0.79
67 1 1 0.0 -1.935 4.049 4.849
68 1 1 0.0 -2.532 4.407 4.723
69 1 1 0.0 -1.656 2.724 4.182
70 1 1 0.0 -2.856 6.008 4.233
71 1 1 0.0 0.293 -0.661 1.756
72 1 1 0.0 3.661 0.921 1.467
73 1 2 0.0 1.099 3.208 3.508
74 1 2 0.0 2.94 5.056 3.346
75 1 1 0.0 3.416 5.384 2.599
76 1 1 0.0 1.08 2.937 2.568
77 1 1 0.0 4.442 6.909 2.104
78 1 1 0.0 -0.561 1.637 7.392
79 1 1 0.0 2.261 4.327 3.333
80 1 1 0.0 1.665 3.969 3.46
81 1 1 0.0 2.541 5.653 4.001
82 1 1 0.0 1.341 2.368 3.949
83 1 1 0.0 -3.904 9.037 0.972
84 1 1 0.0 -0.536 7.455 1.261
85 1 2 0.0 3.098 -0.981 4.674
86 1 2 0.0 1.257 0.868 4.836
87 1 1 0.0 0.781 1.196 5.584
88 1 1 0.0 3.117 -1.251 5.614
89 1 1 0.0 -0.245 2.721 6.078
90 1 1 0.0 4.757 5.825 0.79
91 1 1 0.0 1.935 0.139 4.849
92 1 1 0.0 2.532 -0.219 4.723
93 1 1 0.0 1.656 1.464 4.182
94 1 1 0.0 2.856 -1.82 4.233
95 1 1 0.0 8.101 4.849 1.756
96 1 1 0.0 4.733 3.267 1.467
97 1 2 0.0 0.0 6.282 -1.326
98 1 2 0.0 4.197 2.094 4.053
99 1 2 0.0 0.0 2.094 6.78
100 1 2 0.0 4.197 6.282 1.402
101 1 2 0.0 9.493 -0.981 1.947
102 1 2 0.0 11.334 0.868 2.109
103 1 1 0.0 11.81 1.196 2.856
104 1 1 0.0 9.474 -1.251 2.887
105 1 1 0.0 12.836 2.721 3.35
106 1 1 0.0 7.833 5.825 -1.937
107 1 1 0.0 10.655 0.139 2.121
108 1 1 0.0 10.059 -0.219 1.995
109 1 1 0.0 10.934 1.464 1.454
110 1 1 0.0 9.734 -1.82 1.506
111 1 1 0.0 4.49 4.849 4.483
112 1 1 0.0 7.858 3.267 4.194
113 1 2 0.0 11.491 3.208 0.78
114 1 2 0.0 9.651 5.056 0.619
115 1 1 0.0 9.174 5.384 -0.129
116 1 1 0.0 11.511 2.937 -0.159
117 1 1 0.0 8.149 6.909 -0.623
118 1 1 0.0 13.151 1.637 4.665
119 1 1 0.0 10.329 4.327 0.606
120 1 1 0.0 10.926 3.969 0.732
121 1 1 0.0 10.05 5.653 1.273
122 1 1 0.0 11.25 2.368 1.222
123 1 1 0.0 16.495 9.037 3.699
124 1 1 0.0 13.127 7.455 3.988
125 1 2 0.0 15.688 5.169 1.947
126 1 2 0.0 13.848 3.32 2.109
127 1 1 0.0 13.371 2.992 2.856
128 1 1 0.0 15.707 5.439 2.887
129 1 1 0.0 12.346 1.467 3.35
130 1 1 0.0 8.954 6.739 -1.937
131 1 1 0.0 14.526 4.049 2.121
132 1 1 0.0 15.123 4.407 1.995
133 1 1 0.0 14.247 2.724 1.454
134 1 1 0.0 15.447 6.008 1.506
135 1 1 0.0 12.298 -0.661 4.483
136 1 1 0.0 8.93 0.921 4.194
137 1 2 0.0 5.296 9.357 0.78
138 1 2 0.0 7.137 7.508 0.619
139 1 1 0.0 7.613 7.18 -0.129
140 1 1 0.0 5.277 9.627 -0.159
141 1 1 0.0 8.639 5.655 -0.623
142 1 1 0.0 12.03 2.551 4.665
143 1 1 0.0 6.458 8.237 0.606
144 1 1 0.0 5.862 8.595 0.732
145 1 1 0.0 6.738 6.912 1.273
146 1 1 0.0 5.537 10.196 1.222
147 1 1 0.0 8.687 3.527 3.699
148 1 1 0.0 12.055 5.11 3.988
149 1 2 0.0 15.688 9.357 3.508
150 1 2 0.0 13.848 7.508 3.346
151 1 1 0.0 13.371 7.18 2.599
152 1 1 0.0 15.707 9.627 2.568
153 1 1 0.0 12.346 5.655 2.104
154 1 1 0.0 8.954 2.551 7.392
155 1 1 0.0 14.526 8.237 3.333
156 1 1 0.0 15.123 8.595 3.46
157 1 1 0.0 14.247 6.912 4.001
158 1 1 0.0 15.447 10.196 3.949
159 1 1 0.0 12.298 3.527 0.972
160 1 1 0.0 8.93 5.11 1.261
161 1 2 0.0 5.296 5.169 4.674
162 1 2 0.0 7.137 3.32 4.836
163 1 1 0.0 7.613 2.992 5.584
164 1 1 0.0 5.277 5.439 5.614
165 1 1 0.0 8.639 1.467 6.078
166 1 1 0.0 12.03 6.739 0.79
167 1 1 0.0 6.458 4.049 4.849
168 1 1 0.0 5.862 4.407 4.723
169 1 1 0.0 6.738 2.724 4.182
170 1 1 0.0 5.537 6.008 4.233
171 1 1 0.0 8.687 -0.661 1.756
172 1 1 0.0 12.055 0.921 1.467
173 1 2 0.0 9.493 3.208 3.508
174 1 2 0.0 11.334 5.056 3.346
175 1 1 0.0 11.81 5.384 2.599
176 1 1 0.0 9.474 2.937 2.568
177 1 1 0.0 12.836 6.909 2.104
178 1 1 0.0 7.833 1.637 7.392
179 1 1 0.0 10.655 4.327 3.333
180 1 1 0.0 10.059 3.969 3.46
181 1 1 0.0 10.934 5.653 4.001
182 1 1 0.0 9.734 2.368 3.949
183 1 1 0.0 4.49 9.037 0.972
184 1 1 0.0 7.858 7.455 1.261
185 1 2 0.0 11.491 -0.981 4.674
186 1 2 0.0 9.651 0.868 4.836
187 1 1 0.0 9.174 1.196 5.584
188 1 1 0.0 11.511 -1.251 5.614
189 1 1 0.0 8.149 2.721 6.078
190 1 1 0.0 13.151 5.825 0.79
191 1 1 0.0 10.329 0.139 4.849
192 1 1 0.0 10.926 -0.219 4.723
193 1 1 0.0 10.05 1.464 4.182
194 1 1 0.0 11.25 -1.82 4.233
195 1 1 0.0 16.495 4.849 1.756
196 1 1 0.0 13.127 3.267 1.467
197 1 2 0.0 8.394 6.282 -1.326
198 1 2 0.0 12.591 2.094 4.053
199 1 2 0.0 8.394 2.094 6.78
200 1 2 0.0 12.591 6.282 1.402
201 1 2 0.0 17.887 -0.981 1.947
202 1 2 0.0 19.728 0.868 2.109
203 1 1 0.0 20.204 1.196 2.856
204 1 1 0.0 17.868 -1.251 2.887
205 1 1 0.0 21.23 2.721 3.35
206 1 1 0.0 16.227 5.825 -1.937
207 1 1 0.0 19.049 0.139 2.121
208 1 1 0.0 18.453 -0.219 1.995
209 1 1 0.0 19.328 1.464 1.454
210 1 1 0.0 18.128 -1.82 1.506
211 1 1 0.0 12.884 4.849 4.483
212 1 1 0.0 16.252 3.267 4.194
213 1 2 0.0 19.885 3.208 0.78
214 1 2 0.0 18.045 5.056 0.619
215 1 1 0.0 17.568 5.384 -0.129
216 1 1 0.0 19.904 2.937 -0.159
217 1 1 0.0 16.543 6.909 -0.623
218 1 1 0.0 21.545 1.637 4.665
219 1 1 0.0 18.723 4.327 0.606
220 1 1 0.0 19.32 3.969 0.732
221 1 1 0.0 18.444 5.653 1.273
222 1 1 0.0 19.644 2.368 1.222
223 1 1 0.0 24.889 9.037 3.699
224 1 1 0.0 21.521 7.455 3.988
225 1 2 0.0 24.082 5.169 1.947
226 1 2 0.0 22.242 3.32 2.109
227 1 1 0.0 21.765 2.992 2.856
228 1 1 0.0 24.101 5.439 2.887
229 1 1 0.0 20.74 1.467 3.35
230 1 1 0.0 17.348 6.739 -1.937
231 1 1 0.0 22.92 4.049 2.121
232 1 1 0.0 23.516 4.407 1.995
233 1 1 0.0 22.641 2.724 1.454
234 1 1 0.0 23.841 6.008 1.506
235 1 1 0.0 20.692 -0.661 4.483
236 1 1 0.0 17.324 0.921 4.194
237 1 2 0.0 13.69 9.357 0.78
238 1 2 0.0 15.531 7.508 0.619
239 1 1 0.0 16.007 7.18 -0.129
240 1 1 0.0 13.671 9.627 -0.159
241 1 1 0.0 17.033 5.655 -0.623
242 1 1 0.0 20.424 2.551 4.665
243 1 1 0.0 14.852 8.237 0.606
244 1 1 0.0 14.256 8.595 0.732
245 1 1 0.0 15.131 6.912 1.273
246 1 1 0.0 13.931 10.196 1.222
247 1 1 0.0 17.081 3.527 3.699
248 1 1 0.0 20.448 5.11 3.988
249 1 2 0.0 24.082 9.357 3.508
250 1 2 0.0 22.242 7.508 3.346
251 1 1 0.0 21.765 7.18 2.599
252 1 1 0.0 24.101 9.627 2.568
253 1 1 0.0 20.74 5.655 2.104
254 1 1 0.0 17.348 2.551 7.392
255 1 1 0.0 22.92 8.237 3.333
256 1 1 0.0 23.516 8.595 3.46
257 1 1 0.0 22.641 6.912 4.001
258 1 1 0.0 23.841 10.196 3.949
259 1 1 0.0 20.692 3.527 0.972
260 1 1 0.0 17.324 5.11 1.261
261 1 2 0.0 13.69 5.169 4.674
262 1 2 0.0 15.531 3.32 4.836
263 1 1 0.0 16.007 2.992 5.584
264 1 1 0.0 13.671 5.439 5.614
265 1 1 0.0 17.033 1.467 6.078
266 1 1 0.0 20.424 6.739 0.79
267 1 1 0.0 14.852 4.049 4.849
268 1 1 0.0 14.256 4.407 4.723
269 1 1 0.0 15.131 2.724 4.182
270 1 1 0.0 13.931 6.008 4.233
271 1 1 0.0 17.081 -0.661 1.756
272 1 1 0.0 20.448 0.921 1.467
273 1 2 0.0 17.887 3.208 3.508
274 1 2 0.0 19.728 5.056 3.346
275 1 1 0.0 20.204 5.384 2.599
276 1 1 0.0 17.868 2.937 2.568
277 1 1 0.0 21.23 6.909 2.104
278 1 1 0.0 16.227 1.637 7.392
279 1 1 0.0 19.049 4.327 3.333
280 1 1 0.0 18.453 3.969 3.46
281 1 1 0.0 19.328 5.653 4.001
282 1 1 0.0 18.128 2.368 3.949
283 1 1 0.0 12.884 9.037 0.972
284 1 1 0.0 16.252 7.455 1.261
285 1 2 0.0 19.885 -0.981 4.674
286 1 2 0.0 18.045 0.868 4.836
287 1 1 0.0 17.568 1.196 5.584
288 1 1 0.0 19.904 -1.251 5.614
289 1 1 0.0 16.543 2.721 6.078
290 1 1 0.0 21.545 5.825 0.79
291 1 1 0.0 18.723 0.139 4.849
292 1 1 0.0 19.32 -0.219 4.723
293 1 1 0.0 18.444 1.464 4.182
294 1 1 0.0 19.644 -1.82 4.233
295 1 1 0.0 24.889 4.849 1.756
296 1 1 0.0 21.521 3.267 1.467
297 1 2 0.0 16.788 6.282 -1.326
298 1 2 0.0 20.985 2.094 4.053
299 1 2 0.0 16.788 2.094 6.78
300 1 2 0.0 20.985 6.282 1.402
301 1 2 0.0 1.099 7.396 1.947
302 1 2 0.0 2.94 9.244 2.109
303 1 1 0.0 3.416 9.572 2.856
304 1 1 0.0 1.08 7.125 2.887
305 1 1 0.0 4.442 11.097 3.35
306 1 1 0.0 -0.561 14.201 -1.937
307 1 1 0.0 2.261 8.515 2.121
308 1 1 0.0 1.665 8.157 1.995
309 1 1 0.0 2.541 9.841 1.454
310 1 1 0.0 1.341 6.556 1.506
311 1 1 0.0 -3.904 13.226 4.483
312 1 1 0.0 -0.536 11.643 4.194
313 1 2 0.0 3.098 11.584 0.78
314 1 2 0.0 1.257 13.432 0.619
315 1 1 0.0 0.781 13.76 -0.129
316 1 1 0.0 3.117 11.314 -0.159
317 1 1 0.0 -0.245 15.285 -0.623
318 1 1 0.0 4.757 10.013 4.665
319 1 1 0.0 1.935 12.703 0.606
320 1 1 0.0 2.532 12.345 0.732
321 1 1 0.0 1.656 14.029 1.273
322 1 1 0.0 2.856 10.744 1.222
323 1 1 0.0 8.101 17.414 3.699
324 1 1 0.0 4.733 15.831 3.988
325 1 2 0.0 7.294 13.545 1.947
326 1 2 0.0 5.454 11.696 2.109
327 1 1 0.0 4.977 11.368 2.856
328 1 1 0.0 7.314 13.815 2.887
329 1 1 0.0 3.952 9.843 3.35
330 1 1 0.0 0.561 15.115 -1.937
331 1 1 0.0 6.132 12.425 2.121
332 1 1 0.0 6.729 12.783 1.995
333 1 1 0.0 5.853 11.1 1.454
334 1 1 0.0 7.053 14.384 1.506
335 1 1 0.0 3.904 7.715 4.483
336 1 1 0.0 0.536 9.298 4.194
337 1 2 0.0 -3.098 17.733 0.78
338 1 2 0.0 -1.257 15.884 0.619
339 1 1 0.0 -0.781 15.556 -0.129
340 1 1 0.0 -3.117 18.003 -0.159
341 1 1 0.0 0.245 14.031 -0.623
342 1 1 0.0 3.636 10.927 4.665
343 1 1 0.0 -1.935 16.614 0.606
344 1 1 0.0 -2.532 16.971 0.732
345 1 1 0.0 -1.656 15.288 1.273
346 1 1 0.0 -2.856 18.573 1.222
347 1 1 0.0 0.293 11.903 3.699
348 1 1 0.0 3.661 13.486 3.988
349 1 2 0.0 7.294 17.733 3.508
350 1 2 0.0 5.454 15.884 3.346
351 1 1 0.0 4.977 15.556 2.599
352 1 1 0.0 7.314 18.003 2.568
353 1 1 0.0 3.952 14.031 2.104
354 1 1 0.0 0.561 10.927 7.392
355 1 1 0.0 6.132 16.614 3.333
356 1 1 0.0 6.729 16.971 3.46
357 1 1 0.0 5.853 15.288 4.001
358 1 1 0.0 7.053 18.573 3.949
359 1 1 0.0 3.904 11.903 0.972
360 1 1 0.0 0.536 13.486 1.261
361 1 2 0.0 -3.098 13.545 4.674
362 1 2 0.0 -1.257 11.696 4.836
363 1 1 0.0 -0.781 11.368 5.584
364 1 1 0.0 -3.117 13.815 5.614
365 1 1 0.0 0.245 9.843 6.078
366 1 1 0.0 3.636 15.115 0.79
367 1 1 0.0 -1.935 12.425 4.849
368 1 1 0.0 -2.532 12.783 4.723
369 1 1 0.0 -1.656 11.1 4.182
370 1 1 0.0 -2.856 14.384 4.233
371 1 1 0.0 0.293 7.715 1.756
372 1 1 0.0 3.661 9.298 1.467
373 1 2 0.0 1.099 11.584 3.508
374 1 2 0.0 2.94 13.432 3.346
375 1 1 0.0 3.416 13.76 2.599
376 1 1 0.0 1.08 11.314 2.568
377 1 1 0.0 4.442 15.285 2.104
378 1 1 0.0 -0.561 10.013 7.392
379 1 1 0.0 2.261 12.703 3.333
380 1 1 0.0 1.665 12.345 3.46
381 1 1 0.0 2.541 14.029 4.001
382 1 1 0.0 1.341 10.744 3.949
383 1 1 0.0 -3.904 17.414 0.972
384 1 1 0.0 -0.536 15.831 1.261
385 1 2 0.0 3.098 7.396 4.674
386 1 2 0.0 1.257 9.244 4.836
387 1 1 0.0 0.781 9.572 5.584
388 1 1 0.0 3.117 7.125 5.614
389 1 1 0.0 -0.245 11.097 6.078
390 1 1 0.0 4.757 14.201 0.79
391 1 1 0.0 1.935 8.515 4.849
392 1 1 0.0 2.532 8.157 4.723
393 1 1 0.0 1.656 9.841 4.182
394 1 1 0.0 2.856 6.556 4.233
395 1 1 0.0 8.101 13.226 1.756
396 1 1 0.0 4.733 11.643 1.467
397 1 2 0.0 0.0 14.658 -1.326
398 1 2 0.0 4.197 10.47 4.053
399 1 2 0.0 0.0 10.47 6.78
400 1 2 0.0 4.197 14.658 1.402
401 1 2 0.0 9.493 7.396 1.947
402 1 2 0.0 11.334 9.244 2.109
403 1 1 0.0 11.81 9.572 2.856
404 1 1 0.0 9.474 7.125 2.887
405 1 1 0.0 12.836 11.097 3.35
406 1 1 0.0 7.833 14.201 -1.937
407 1 1 0.0 10.655 8.515 2.121
408 1 1 0.0 10.059 8.157 1.995
409 1 1 0.0 10.934 9.841 1.454
410 1 1 0.0 9.734 6.556 1.506
411 1 1 0.0 4.49 13.226 4.483
412 1 1 0.0 7.858 11.643 4.194
413 1 2 0.0 11.491 11.584 0.78
414 1 2 0.0 9.651 13.432 0.619
415 1 1 0.0 9.174 13.76 -0.129
416 1 1 0.0 11.511 11.314 -0.159
417 1 1 0.0 8.149 15.285 -0.623
418 1 1 0.0 13.151 10.013 4.665
419 1 1 0.0 10.329 12.703 0.606
420 1 1 0.0 10.926 12.345 0.732
421 1 1 0.0 10.05 14.029 1.273
422 1 1 0.0 11.25 10.744 1.222
423 1 1 0.0 16.495 17.414 3.699
424 1 1 0.0 13.127 15.831 3.988
425 1 2 0.0 15.688 13.545 1.947
426 1 2 0.0 13.848 11.696 2.109
427 1 1 0.0 13.371 11.368 2.856
428 1 1 0.0 15.707 13.815 2.887
429 1 1 0.0 12.346 9.843 3.35
430 1 1 0.0 8.954 15.115 -1.937
431 1 1 0.0 14.526 12.425 2.121
432 1 1 0.0 15.123 12.783 1.995
433 1 1 0.0 14.247 11.1 1.454
434 1 1 0.0 15.447 14.384 1.506
435 1 1 0.0 12.298 7.715 4.483
436 1 1 0.0 8.93 9.298 4.194
437 1 2 0.0 5.296 17.733 0.78
438 1 2 0.0 7.137 15.884 0.619
439 1 1 0.0 7.613 15.556 -0.129
440 1 1 0.0 5.277 18.003 -0.159
441 1 1 0.0 8.639 14.031 -0.623
442 1 1 0.0 12.03 10.927 4.665
443 1 1 0.0 6.458 16.614 0.606
444 1 1 0.0 5.862 16.971 0.732
445 1 1 0.0 6.738 15.288 1.273
446 1 1 0.0 5.537 18.573 1.222
447 1 1 0.0 8.687 11.903 3.699
448 1 1 0.0 12.055 13.486 3.988
449 1 2 0.0 15.688 17.733 3.508
450 1 2 0.0 13.848 15.884 3.346
451 1 1 0.0 13.371 15.556 2.599
452 1 1 0.0 15.707 18.003 2.568
453 1 1 0.0 12.346 14.031 2.104
454 1 1 0.0 8.954 10.927 7.392
455 1 1 0.0 14.526 16.614 3.333
456 1 1 0.0 15.123 16.971 3.46
457 1 1 0.0 14.247 15.288 4.001
458 1 1 0.0 15.447 18.573 3.949
459 1 1 0.0 12.298 11.903 0.972
460 1 1 0.0 8.93 13.486 1.261
461 1 2 0.0 5.296 13.545 4.674
462 1 2 0.0 7.137 11.696 4.836
463 1 1 0.0 7.613 11.368 5.584
464 1 1 0.0 5.277 13.815 5.614
465 1 1 0.0 8.639 9.843 6.078
466 1 1 0.0 12.03 15.115 0.79
467 1 1 0.0 6.458 12.425 4.849
468 1 1 0.0 5.862 12.783 4.723
469 1 1 0.0 6.738 11.1 4.182
470 1 1 0.0 5.537 14.384 4.233
471 1 1 0.0 8.687 7.715 1.756
472 1 1 0.0 12.055 9.298 1.467
473 1 2 0.0 9.493 11.584 3.508
474 1 2 0.0 11.334 13.432 3.346
475 1 1 0.0 11.81 13.76 2.599
476 1 1 0.0 9.474 11.314 2.568
477 1 1 0.0 12.836 15.285 2.104
478 1 1 0.0 7.833 10.013 7.392
479 1 1 0.0 10.655 12.703 3.333
480 1 1 0.0 10.059 12.345 3.46
481 1 1 0.0 10.934 14.029 4.001
482 1 1 0.0 9.734 10.744 3.949
483 1 1 0.0 4.49 17.414 0.972
484 1 1 0.0 7.858 15.831 1.261
485 1 2 0.0 11.491 7.396 4.674
486 1 2 0.0 9.651 9.244 4.836
487 1 1 0.0 9.174 9.572 5.584
488 1 1 0.0 11.511 7.125 5.614
489 1 1 0.0 8.149 11.097 6.078
490 1 1 0.0 13.151 14.201 0.79
491 1 1 0.0 10.329 8.515 4.849
492 1 1 0.0 10.926 8.157 4.723
493 1 1 0.0 10.05 9.841 4.182
494 1 1 0.0 11.25 6.556 4.233
495 1 1 0.0 16.495 13.226 1.756
496 1 1 0.0 13.127 11.643 1.467
497 1 2 0.0 8.394 14.658 -1.326
498 1 2 0.0 12.591 10.47 4.053
499 1 2 0.0 8.394 10.47 6.78
500 1 2 0.0 12.591 14.658 1.402
501 1 2 0.0 17.887 7.396 1.947
502 1 2 0.0 19.728 9.244 2.109
503 1 1 0.0 20.204 9.572 2.856
504 1 1 0.0 17.868 7.125 2.887
505 1 1 0.0 21.23 11.097 3.35
506 1 1 0.0 16.227 14.201 -1.937
507 1 1 0.0 19.049 8.515 2.121
508 1 1 0.0 18.453 8.157 1.995
509 1 1 0.0 19.328 9.841 1.454
510 1 1 0.0 18.128 6.556 1.506
511 1 1 0.0 12.884 13.226 4.483
512 1 1 0.0 16.252 11.643 4.194
513 1 2 0.0 19.885 11.584 0.78
514 1 2 0.0 18.045 13.432 0.619
515 1 1 0.0 17.568 13.76 -0.129
516 1 1 0.0 19.904 11.314 -0.159
517 1 1 0.0 16.543 15.285 -0.623
518 1 1 0.0 21.545 10.013 4.665
519 1 1 0.0 18.723 12.703 0.606
520 1 1 0.0 19.32 12.345 0.732
521 1 1 0.0 18.444 14.029 1.273
522 1 1 0.0 19.644 10.744 1.222
523 1 1 0.0 24.889 17.414 3.699
524 1 1 0.0 21.521 15.831 3.988
525 1 2 0.0 24.082 13.545 1.947
526 1 2 0.0 22.242 11.696 2.109
527 1 1 0.0 21.765 11.368 2.856
528 1 1 0.0 24.101 13.815 2.887
529 1 1 0.0 20.74 9.843 3.35
530 1 1 0.0 17.348 15.115 -1.937
531 1 1 0.0 22.92 12.425 2.121
532 1 1 0.0 23.516 12.783 1.995
533 1 1 0.0 22.641 11.1 1.454
534 1 1 0.0 23.841 14.384 1.506
535 1 1 0.0 20.692 7.715 4.483
536 1 1 0.0 17.324 9.298 4.194
537 1 2 0.0 13.69 17.733 0.78
538 1 2 0.0 15.531 15.884 0.619
539 1 1 0.0 16.007 15.556 -0.129
540 1 1 0.0 13.671 18.003 -0.159
541 1 1 0.0 17.033 14.031 -0.623
542 1 1 0.0 20.424 10.927 4.665
543 1 1 0.0 14.852 16.614 0.606
544 1 1 0.0 14.256 16.971 0.732
545 1 1 0.0 15.131 15.288 1.273
546 1 1 0.0 13.931 18.573 1.222
547 1 1 0.0 17.081 11.903 3.699
548 1 1 0.0 20.448 13.486 3.988
549 1 2 0.0 24.082 17.733 3.508
550 1 2 0.0 22.242 15.884 3.346
551 1 1 0.0 21.765 15.556 2.599
552 1 1 0.0 24.101 18.003 2.568
553 1 1 0.0 20.74 14.031 2.104
554 1 1 0.0 17.348 10.927 7.392
555 1 1 0.0 22.92 16.614 3.333
556 1 1 0.0 23.516 16.971 3.46
557 1 1 0.0 22.641 15.288 4.001
558 1 1 0.0 23.841 18.573 3.949
559 1 1 0.0 20.692 11.903 0.972
560 1 1 0.0 17.324 13.486 1.261
561 1 2 0.0 13.69 13.545 4.674
562 1 2 0.0 15.531 11.696 4.836
563 1 1 0.0 16.007 11.368 5.584
564 1 1 0.0 13.671 13.815 5.614
565 1 1 0.0 17.033 9.843 6.078
566 1 1 0.0 20.424 15.115 0.79
567 1 1 0.0 14.852 12.425 4.849
568 1 1 0.0 14.256 12.783 4.723
569 1 1 0.0 15.131 11.1 4.182
570 1 1 0.0 13.931 14.384 4.233
571 1 1 0.0 17.081 7.715 1.756
572 1 1 0.0 20.448 9.298 1.467
573 1 2 0.0 17.887 11.584 3.508
574 1 2 0.0 19.728 13.432 3.346
575 1 1 0.0 20.204 13.76 2.599
576 1 1 0.0 17.868 11.314 2.568
577 1 1 0.0 21.23 15.285 2.104
578 1 1 0.0 16.227 10.013 7.392
579 1 1 0.0 19.049 12.703 3.333
580 1 1 0.0 18.453 12.345 3.46
581 1 1 0.0 19.328 14.029 4.001
582 1 1 0.0 18.128 10.744 3.949
583 1 1 0.0 12.884 17.414 0.972
584 1 1 0.0 16.252 15.831 1.261
585 1 2 0.0 19.885 7.396 4.674
586 1 2 0.0 18.045 9.244 4.836
587 1 1 0.0 17.568 9.572 5.584
588 1 1 0.0 19.904 7.125 5.614
589 1 1 0.0 16.543 11.097 6.078
590 1 1 0.0 21.545 14.201 0.79
591 1 1 0.0 18.723 8.515 4.849
592 1 1 0.0 19.32 8.157 4.723
593 1 1 0.0 18.444 9.841 4.182
594 1 1 0.0 19.644 6.556 4.233
595 1 1 0.0 24.889 13.226 1.756
596 1 1 0.0 21.521 11.643 1.467
597 1 2 0.0 16.788 14.658 -1.326
598 1 2 0.0 20.985 10.47 4.053
599 1 2 0.0 16.788 10.47 6.78
600 1 2 0.0 20.985 14.658 1.402
601 1 2 0.0 1.099 15.772 1.947
602 1 2 0.0 2.94 17.62 2.109
603 1 1 0.0 3.416 17.948 2.856
604 1 1 0.0 1.08 15.502 2.887
605 1 1 0.0 4.442 19.473 3.35
606 1 1 0.0 -0.561 22.578 -1.937
607 1 1 0.0 2.261 16.891 2.121
608 1 1 0.0 1.665 16.533 1.995
609 1 1 0.0 2.541 18.217 1.454
610 1 1 0.0 1.341 14.932 1.506
611 1 1 0.0 -3.904 21.602 4.483
612 1 1 0.0 -0.536 20.019 4.194
613 1 2 0.0 3.098 19.96 0.78
614 1 2 0.0 1.257 21.808 0.619
615 1 1 0.0 0.781 22.136 -0.129
616 1 1 0.0 3.117 19.69 -0.159
617 1 1 0.0 -0.245 23.661 -0.623
618 1 1 0.0 4.757 18.39 4.665
619 1 1 0.0 1.935 21.079 0.606
620 1 1 0.0 2.532 20.721 0.732
621 1 1 0.0 1.656 22.405 1.273
622 1 1 0.0 2.856 19.12 1.222
623 1 1 0.0 8.101 25.79 3.699
624 1 1 0.0 4.733 24.207 3.988
625 1 2 0.0 7.294 21.921 1.947
626 1 2 0.0 5.454 20.072 2.109
627 1 1 0.0 4.977 19.744 2.856
628 1 1 0.0 7.314 22.191 2.887
629 1 1 0.0 3.952 18.219 3.35
630 1 1 0.0 0.561 23.491 -1.937
631 1 1 0.0 6.132 20.802 2.121
632 1 1 0.0 6.729 21.159 1.995
633 1 1 0.0 5.853 19.476 1.454
634 1 1 0.0 7.053 22.761 1.506
635 1 1 0.0 3.904 16.091 4.483
636 1 1 0.0 0.536 17.674 4.194
637 1 2 0.0 -3.098 26.109 0.78
638 1 2 0.0 -1.257 24.26 0.619
639 1 1 0.0 -0.781 23.932 -0.129
640 1 1 0.0 -3.117 26.379 -0.159
641 1 1 0.0 0.245 22.407 -0.623
642 1 1 0.0 3.636 19.303 4.665
643 1 1 0.0 -1.935 24.99 0.606
644 1 1 0.0 -2.532 25.348 0.732
645 1 1 0.0 -1.656 23.664 1.273
646 1 1 0.0 -2.856 26.949 1.222
647 1 1 0.0 0.293 20.279 3.699
648 1 1 0.0 3.661 21.862 3.988
649 1 2 0.0 7.294 26.109 3.508
650 1 2 0.0 5.454 24.26 3.346
651 1 1 0.0 4.977 23.932 2.599
652 1 1 0.0 7.314 26.379 2.568
653 1 1 0.0 3.952 22.407 2.104
654 1 1 0.0 0.561 19.303 7.392
655 1 1 0.0 6.132 24.99 3.333
656 1 1 0.0 6.729 25.348 3.46
657 1 1 0.0 5.853 23.664 4.001
658 1 1 0.0 7.053 26.949 3.949
659 1 1 0.0 3.904 20.279 0.972
660 1 1 0.0 0.536 21.862 1.261
661 1 2 0.0 -3.098 21.921 4.674
662 1 2 0.0 -1.257 20.072 4.836
663 1 1 0.0 -0.781 19.744 5.584
664 1 1 0.0 -3.117 22.191 5.614
665 1 1 0.0 0.245 18.219 6.078
666 1 1 0.0 3.636 23.491 0.79
667 1 1 0.0 -1.935 20.802 4.849
668 1 1 0.0 -2.532 21.159 4.723
669 1 1 0.0 -1.656 19.476 4.182
670 1 1 0.0 -2.856 22.761 4.233
671 1 1 0.0 0.293 16.091 1.756
672 1 1 0.0 3.661 17.674 1.467
673 1 2 0.0 1.099 19.96 3.508
674 1 2 0.0 2.94 21.808 3.346
675 1 1 0.0 3.416 22.136 2.599
676 1 1 0.0 1.08 19.69 2.568
677 1 1 0.0 4.442 23.661 2.104
678 1 1 0.0 -0.561 18.39 7.392
679 1 1 0.0 2.261 21.079 3.333
680 1 1 0.0 1.665 20.721 3.46
681 1 1 0.0 2.541 22.405 4.001
682 1 1 0.0 1.341 19.12 3.949
683 1 1 0.0 -3.904 25.79 0.972
684 1 1 0.0 -0.536 24.207 1.261
685 1 2 0.0 3.098 15.772 4.674
686 1 2 0.0 1.257 17.62 4.836
687 1 1 0.0 0.781 17.948 5.584
688 1 1 0.0 3.117 15.502 5.614
689 1 1 0.0 -0.245 19.473 6.078
690 1 1 0.0 4.757 22.578 0.79
691 1 1 0.0 1.935 16.891 4.849
692 1 1 0.0 2.532 16.533 4.723
693 1 1 0.0 1.656 18.217 4.182
694 1 1 0.0 2.856 14.932 4.233
695 1 1 0.0 8.101 21.602 1.756
696 1 1 0.0 4.733 20.019 1.467
697 1 2 0.0 0.0 23.034 -1.326
698 1 2 0.0 4.197 18.846 4.053
699 1 2 0.0 0.0 18.846 6.78
700 1 2 0.0 4.197 23.034 1.402
701 1 2 0.0 9.493 15.772 1.947
702 1 2 0.0 11.334 17.62 2.109
703 1 1 0.0 11.81 17.948 2.856
704 1 1 0.0 9.474 15.502 2.887
705 1 1 0.0 12.836 19.473 3.35
706 1 1 0.0 7.833 22.578 -1.937
707 1 1 0.0 10.655 16.891 2.121
708 1 1 0.0 10.059 16.533 1.995
709 1 1 0.0 10.934 18.217 1.454
710 1 1 0.0 9.734 14.932 1.506
711 1 1 0.0 4.49 21.602 4.483
712 1 1 0.0 7.858 20.019 4.194
713 1 2 0.0 11.491 19.96 0.78
714 1 2 0.0 9.651 21.808 0.619
715 1 1 0.0 9.174 22.136 -0.129
716 1 1 0.0 11.511 19.69 -0.159
717 1 1 0.0 8.149 23.661 -0.623
718 1 1 0.0 13.151 18.39 4.665
719 1 1 0.0 10.329 21.079 0.606
720 1 1 0.0 10.926 20.721 0.732
721 1 1 0.0 10.05 22.405 1.273
722 1 1 0.0 11.25 19.12 1.222
723 1 1 0.0 16.495 25.79 3.699
724 1 1 0.0 13.127 24.207 3.988
725 1 2 0.0 15.688 21.921 1.947
726 1 2 0.0 13.848 20.072 2.109
727 1 1 0.0 13.371 19.744 2.856
728 1 1 0.0 15.707 22.191 2.887
729 1 1 0.0 12.346 18.219 3.35
730 1 1 0.0 8.954 23.491 -1.937
731 1 1 0.0 14.526 20.802 2.121
732 1 1 0.0 15.123 21.159 1.995
733 1 1 0.0 14.247 19.476 1.454
734 1 1 0.0 15.447 22.761 1.506
735 1 1 0.0 12.298 16.091 4.483
736 1 1 0.0 8.93 17.674 4.194
737 1 2 0.0 5.296 26.109 0.78
738 1 2 0.0 7.137 24.26 0.619
739 1 1 0.0 7.613 23.932 -0.129
740 1 1 0.0 5.277 26.379 -0.159
741 1 1 0.0 8.639 22.407 -0.623
742 1 1 0.0 12.03 19.303 4.665
743 1 1 0.0 6.458 24.99 0.606
744 1 1 0.0 5.862 25.348 0.732
745 1 1 0.0 6.738 23.664 1.273
746 1 1 0.0 5.537 26.949 1.222
747 1 1 0.0 8.687 20.279 3.699
748 1 1 0.0 12.055 21.862 3.988
749 1 2 0.0 15.688 26.109 3.508
750 1 2 0.0 13.848 24.26 3.346
751 1 1 0.0 13.371 23.932 2.599
752 1 1 0.0 15.707 26.379 2.568
753 1 1 0.0 12.346 22.407 2.104
754 1 1 0.0 8.954 19.303 7.392
755 1 1 0.0 14.526 24.99 3.333
756 1 1 0.0 15.123 25.348 3.46
757 1 1 0.0 14.247 23.664 4.001
758 1 1 0.0 15.447 26.949 3.949
759 1 1 0.0 12.298 20.279 0.972
760 1 1 0.0 8.93 21.862 1.261
761 1 2 0.0 5.296 21.921 4.674
762 1 2 0.0 7.137 20.072 4.836
763 1 1 0.0 7.613 19.744 5.584
764 1 1 0.0 5.277 22.191 5.614
765 1 1 0.0 8.639 18.219 6.078
766 1 1 0.0 12.03 23.491 0.79
767 1 1 0.0 6.458 20.802 4.849
768 1 1 0.0 5.862 21.159 4.723
769 1 1 0.0 6.738 19.476 4.182
770 1 1 0.0 5.537 22.761 4.233
771 1 1 0.0 8.687 16.091 1.756
772 1 1 0.0 12.055 17.674 1.467
773 1 2 0.0 9.493 19.96 3.508
774 1 2 0.0 11.334 21.808 3.346
775 1 1 0.0 11.81 22.136 2.599
776 1 1 0.0 9.474 19.69 2.568
777 1 1 0.0 12.836 23.661 2.104
778 1 1 0.0 7.833 18.39 7.392
779 1 1 0.0 10.655 21.079 3.333
780 1 1 0.0 10.059 20.721 3.46
781 1 1 0.0 10.934 22.405 4.001
782 1 1 0.0 9.734 19.12 3.949
783 1 1 0.0 4.49 25.79 0.972
784 1 1 0.0 7.858 24.207 1.261
785 1 2 0.0 11.491 15.772 4.674
786 1 2 0.0 9.651 17.62 4.836
787 1 1 0.0 9.174 17.948 5.584
788 1 1 0.0 11.511 15.502 5.614
789 1 1 0.0 8.149 19.473 6.078
790 1 1 0.0 13.151 22.578 0.79
791 1 1 0.0 10.329 16.891 4.849
792 1 1 0.0 10.926 16.533 4.723
793 1 1 0.0 10.05 18.217 4.182
794 1 1 0.0 11.25 14.932 4.233
795 1 1 0.0 16.495 21.602 1.756
796 1 1 0.0 13.127 20.019 1.467
797 1 2 0.0 8.394 23.034 -1.326
798 1 2 0.0 12.591 18.846 4.053
799 1 2 0.0 8.394 18.846 6.78
800 1 2 0.0 12.591 23.034 1.402
801 1 2 0.0 17.887 15.772 1.947
802 1 2 0.0 19.728 17.62 2.109
803 1 1 0.0 20.204 17.948 2.856
804 1 1 0.0 17.868 15.502 2.887
805 1 1 0.0 21.23 19.473 3.35
806 1 1 0.0 16.227 22.578 -1.937
807 1 1 0.0 19.049 16.891 2.121
808 1 1 0.0 18.453 16.533 1.995
809 1 1 0.0 19.328 18.217 1.454
810 1 1 0.0 18.128 14.932 1.506
811 1 1 0.0 12.884 21.602 4.483
812 1 1 0.0 16.252 20.019 4.194
813 1 2 0.0 19.885 19.96 0.78
814 1 2 0.0 18.045 21.808 0.619
815 1 1 0.0 17.568 22.136 -0.129
816 1 1 0.0 19.904 19.69 -0.159
817 1 1 0.0 16.543 23.661 -0.623
818 1 1 0.0 21.545 18.39 4.665
819 1 1 0.0 18.723 21.079 0.606
820 1 1 0.0 19.32 20.721 0.732
821 1 1 0.0 18.444 22.405 1.273
822 1 1 0.0 19.644 19.12 1.222
823 1 1 0.0 24.889 25.79 3.699
824 1 1 0.0 21.521 24.207 3.988
825 1 2 0.0 24.082 21.921 1.947
826 1 2 0.0 22.242 20.072 2.109
827 1 1 0.0 21.765 19.744 2.856
828 1 1 0.0 24.101 22.191 2.887
829 1 1 0.0 20.74 18.219 3.35
830 1 1 0.0 17.348 23.491 -1.937
831 1 1 0.0 22.92 20.802 2.121
832 1 1 0.0 23.516 21.159 1.995
833 1 1 0.0 22.641 19.476 1.454
834 1 1 0.0 23.841 22.761 1.506
835 1 1 0.0 20.692 16.091 4.483
836 1 1 0.0 17.324 17.674 4.194
837 1 2 0.0 13.69 26.109 0.78
838 1 2 0.0 15.531 24.26 0.619
839 1 1 0.0 16.007 23.932 -0.129
840 1 1 0.0 13.671 26.379 -0.159
841 1 1 0.0 17.033 22.407 -0.623
842 1 1 0.0 20.424 19.303 4.665
843 1 1 0.0 14.852 24.99 0.606
844 1 1 0.0 14.256 25.348 0.732
845 1 1 0.0 15.131 23.664 1.273
846 1 1 0.0 13.931 26.949 1.222
847 1 1 0.0 17.081 20.279 3.699
848 1 1 0.0 20.448 21.862 3.988
849 1 2 0.0 24.082 26.109 3.508
850 1 2 0.0 22.242 24.26 3.346
851 1 1 0.0 21.765 23.932 2.599
852 1 1 0.0 24.101 26.379 2.568
853 1 1 0.0 20.74 22.407 2.104
854 1 1 0.0 17.348 19.303 7.392
855 1 1 0.0 22.92 24.99 3.333
856 1 1 0.0 23.516 25.348 3.46
857 1 1 0.0 22.641 23.664 4.001
858 1 1 0.0 23.841 26.949 3.949
859 1 1 0.0 20.692 20.279 0.972
860 1 1 0.0 17.324 21.862 1.261
861 1 2 0.0 13.69 21.921 4.674
862 1 2 0.0 15.531 20.072 4.836
863 1 1 0.0 16.007 19.744 5.584
864 1 1 0.0 13.671 22.191 5.614
865 1 1 0.0 17.033 18.219 6.078
866 1 1 0.0 20.424 23.491 0.79
867 1 1 0.0 14.852 20.802 4.849
868 1 1 0.0 14.256 21.159 4.723
869 1 1 0.0 15.131 19.476 4.182
870 1 1 0.0 13.931 22.761 4.233
871 1 1 0.0 17.081 16.091 1.756
872 1 1 0.0 20.448 17.674 1.467
873 1 2 0.0 17.887 19.96 3.508
874 1 2 0.0 19.728 21.808 3.346
875 1 1 0.0 20.204 22.136 2.599
876 1 1 0.0 17.868 19.69 2.568
877 1 1 0.0 21.23 23.661 2.104
878 1 1 0.0 16.227 18.39 7.392
879 1 1 0.0 19.049 21.079 3.333
880 1 1 0.0 18.453 20.721 3.46
881 1 1 0.0 19.328 22.405 4.001
882 1 1 0.0 18.128 19.12 3.949
883 1 1 0.0 12.884 25.79 0.972
884 1 1 0.0 16.252 24.207 1.261
885 1 2 0.0 19.885 15.772 4.674
886 1 2 0.0 18.045 17.62 4.836
887 1 1 0.0 17.568 17.948 5.584
888 1 1 0.0 19.904 15.502 5.614
889 1 1 0.0 16.543 19.473 6.078
890 1 1 0.0 21.545 22.578 0.79
891 1 1 0.0 18.723 16.891 4.849
892 1 1 0.0 19.32 16.533 4.723
893 1 1 0.0 18.444 18.217 4.182
894 1 1 0.0 19.644 14.932 4.233
895 1 1 0.0 24.889 21.602 1.756
896 1 1 0.0 21.521 20.019 1.467
897 1 2 0.0 16.788 23.034 -1.326
898 1 2 0.0 20.985 18.846 4.053
899 1 2 0.0 16.788 18.846 6.78
900 1 2 0.0 20.985 23.034 1.402
901 1 2 0.0 1.099 -0.981 7.402
902 1 2 0.0 2.94 0.868 7.563
903 1 1 0.0 3.416 1.196 8.311
904 1 1 0.0 1.08 -1.251 8.342
905 1 1 0.0 4.442 2.721 8.805
906 1 1 0.0 -0.561 5.825 3.517
907 1 1 0.0 2.261 0.139 7.576
908 1 1 0.0 1.665 -0.219 7.45
909 1 1 0.0 2.541 1.464 6.909
910 1 1 0.0 1.341 -1.82 6.96
911 1 1 0.0 -3.904 4.849 9.938
912 1 1 0.0 -0.536 3.267 9.649
913 1 2 0.0 3.098 3.208 6.235
914 1 2 0.0 1.257 5.056 6.074
915 1 1 0.0 0.781 5.384 5.326
916 1 1 0.0 3.117 2.937 5.295
917 1 1 0.0 -0.245 6.909 4.832
918 1 1 0.0 4.757 1.637 10.12
919 1 1 0.0 1.935 4.327 6.061
920 1 1 0.0 2.532 3.969 6.187
921 1 1 0.0 1.656 5.653 6.728
922 1 1 0.0 2.856 2.368 6.677
923 1 1 0.0 8.101 9.037 9.154
924 1 1 0.0 4.733 7.455 9.443
925 1 2 0.0 7.294 5.169 7.402
926 1 2 0.0 5.454 3.32 7.563
927 1 1 0.0 4.977 2.992 8.311
928 1 1 0.0 7.314 5.439 8.342
929 1 1 0.0 3.952 1.467 8.805
930 1 1 0.0 0.561 6.739 3.517
931 1 1 0.0 6.132 4.049 7.576
932 1 1 0.0 6.729 4.407 7.45
933 1 1 0.0 5.853 2.724 6.909
934 1 1 0.0 7.053 6.008 6.96
935 1 1 0.0 3.904 -0.661 9.938
936 1 1 0.0 0.536 0.921 9.649
937 1 2 0.0 -3.098 9.357 6.235
938 1 2 0.0 -1.257 7.508 6.074
939 1 1 0.0 -0.781 7.18 5.326
940 1 1 0.0 -3.117 9.627 5.295
941 1 1 0.0 0.245 5.655 4.832
942 1 1 0.0 3.636 2.551 10.12
943 1 1 0.0 -1.935 8.237 6.061
944 1 1 0.0 -2.532 8.595 6.187
945 1 1 0.0 -1.656 6.912 6.728
946 1 1 0.0 -2.856 10.196 6.677
947 1 1 0.0 0.293 3.527 9.154
948 1 1 0.0 3.661 5.11 9.443
949 1 2 0.0 7.294 9.357 8.962
950 1 2 0.0 5.454 7.508 8.801
951 1 1 0.0 4.977 7.18 8.053
952 1 1 0.0 7.314 9.627 8.023
953 1 1 0.0 3.952 5.655 7.559
954 1 1 0.0 0.561 2.551 12.847
955 1 1 0.0 6.132 8.237 8.788
956 1 1 0.0 6.729 8.595 8.914
957 1 1 0.0 5.853 6.912 9.455
958 1 1 0.0 7.053 10.196 9.404
959 1 1 0.0 3.904 3.527 6.427
960 1 1 0.0 0.536 5.11 6.715
961 1 2 0.0 -3.098 5.169 10.129
962 1 2 0.0 -1.257 3.32 10.291
963 1 1 0.0 -0.781 2.992 11.038
964 1 1 0.0 -3.117 5.439 11.069
965 1 1 0.0 0.245 1.467 11.533