# LAMMPS data file written by OVITO Basic 3.5.4
960 atoms
640 bonds
2 atom types
1 bond types
-0.243 22.925 xlo xhi
-0.208 22.953 ylo yhi
1.427 23.261 zlo zhi

Masses

1 1.00794  # H
2 15.9994  # O

Atoms  # full

1 1 2 0.0 1.714 1.57 1.427
2 1 1 0.0 2.809 1.63 5.89
3 1 1 0.0 0.174 1.72 5.817
4 1 2 0.0 1.465 3.247 3.586
5 1 1 0.0 1.63 2.181 2.159
6 1 1 0.0 1.464 0.739 1.944
7 1 2 0.0 1.542 -0.208 3.593
8 1 1 0.0 1.772 4.221 3.697
9 1 1 0.0 4.228 1.603 4.251
10 1 2 0.0 -0.243 1.495 5.067
11 1 1 0.0 2.293 2.847 4.095
12 1 1 0.0 2.409 0.084 3.925
13 1 2 0.0 3.274 1.695 4.88
14 1 1 0.0 0.881 0.277 4.058
15 1 1 0.0 0.27 2.147 4.408
16 1 2 0.0 7.946 1.57 1.427
17 1 1 0.0 9.041 1.63 5.89
18 1 1 0.0 6.406 1.72 5.817
19 1 2 0.0 7.698 3.247 3.586
20 1 1 0.0 7.863 2.181 2.159
21 1 1 0.0 7.696 0.739 1.944
22 1 2 0.0 7.774 -0.208 3.593
23 1 1 0.0 8.005 4.221 3.697
24 1 1 0.0 10.46 1.603 4.251
25 1 2 0.0 5.989 1.495 5.067
26 1 1 0.0 8.525 2.847 4.095
27 1 1 0.0 8.642 0.084 3.925
28 1 2 0.0 9.507 1.695 4.88
29 1 1 0.0 7.113 0.277 4.058
30 1 1 0.0 6.503 2.147 4.408
31 1 2 0.0 14.178 1.57 1.427
32 1 1 0.0 15.273 1.63 5.89
33 1 1 0.0 12.638 1.72 5.817
34 1 2 0.0 13.93 3.247 3.586
35 1 1 0.0 14.095 2.181 2.159
36 1 1 0.0 13.929 0.739 1.944
37 1 2 0.0 14.006 -0.208 3.593
38 1 1 0.0 14.237 4.221 3.697
39 1 1 0.0 16.693 1.603 4.251
40 1 2 0.0 12.222 1.495 5.067
41 1 1 0.0 14.757 2.847 4.095
42 1 1 0.0 14.874 0.084 3.925
43 1 2 0.0 15.739 1.695 4.88
44 1 1 0.0 13.345 0.277 4.058
45 1 1 0.0 12.735 2.147 4.408
46 1 2 0.0 20.411 1.57 1.427
47 1 1 0.0 21.506 1.63 5.89
48 1 1 0.0 18.871 1.72 5.817
49 1 2 0.0 20.162 3.247 3.586
50 1 1 0.0 20.327 2.181 2.159
51 1 1 0.0 20.161 0.739 1.944
52 1 2 0.0 20.239 -0.208 3.593
53 1 1 0.0 20.469 4.221 3.697
54 1 1 0.0 22.925 1.603 4.251
55 1 2 0.0 18.454 1.495 5.067
56 1 1 0.0 20.99 2.847 4.095
57 1 1 0.0 21.106 0.084 3.925
58 1 2 0.0 21.971 1.695 4.88
59 1 1 0.0 19.578 0.277 4.058
60 1 1 0.0 18.967 2.147 4.408
61 1 2 0.0 1.714 7.814 1.427
62 1 1 0.0 2.809 7.874 5.89
63 1 1 0.0 0.174 7.964 5.817
64 1 2 0.0 1.465 9.491 3.586
65 1 1 0.0 1.63 8.425 2.159
66 1 1 0.0 1.464 6.983 1.944
67 1 2 0.0 1.542 6.036 3.593
68 1 1 0.0 1.772 10.465 3.697
69 1 1 0.0 4.228 7.847 4.251
70 1 2 0.0 -0.243 7.739 5.067
71 1 1 0.0 2.293 9.09 4.095
72 1 1 0.0 2.409 6.327 3.925
73 1 2 0.0 3.274 7.939 4.88
74 1 1 0.0 0.881 6.521 4.058
75 1 1 0.0 0.27 8.391 4.408
76 1 2 0.0 7.946 7.814 1.427
77 1 1 0.0 9.041 7.874 5.89
78 1 1 0.0 6.406 7.964 5.817
79 1 2 0.0 7.698 9.491 3.586
80 1 1 0.0 7.863 8.425 2.159
81 1 1 0.0 7.696 6.983 1.944
82 1 2 0.0 7.774 6.036 3.593
83 1 1 0.0 8.005 10.465 3.697
84 1 1 0.0 10.46 7.847 4.251
85 1 2 0.0 5.989 7.739 5.067
86 1 1 0.0 8.525 9.09 4.095
87 1 1 0.0 8.642 6.327 3.925
88 1 2 0.0 9.507 7.939 4.88
89 1 1 0.0 7.113 6.521 4.058
90 1 1 0.0 6.503 8.391 4.408
91 1 2 0.0 14.178 7.814 1.427
92 1 1 0.0 15.273 7.874 5.89
93 1 1 0.0 12.638 7.964 5.817
94 1 2 0.0 13.93 9.491 3.586
95 1 1 0.0 14.095 8.425 2.159
96 1 1 0.0 13.929 6.983 1.944
97 1 2 0.0 14.006 6.036 3.593
98 1 1 0.0 14.237 10.465 3.697
99 1 1 0.0 16.693 7.847 4.251
100 1 2 0.0 12.222 7.739 5.067
101 1 1 0.0 14.757 9.09 4.095
102 1 1 0.0 14.874 6.327 3.925
103 1 2 0.0 15.739 7.939 4.88
104 1 1 0.0 13.345 6.521 4.058
105 1 1 0.0 12.735 8.391 4.408
106 1 2 0.0 20.411 7.814 1.427
107 1 1 0.0 21.506 7.874 5.89
108 1 1 0.0 18.871 7.964 5.817
109 1 2 0.0 20.162 9.491 3.586
110 1 1 0.0 20.327 8.425 2.159
111 1 1 0.0 20.161 6.983 1.944
112 1 2 0.0 20.239 6.036 3.593
113 1 1 0.0 20.469 10.465 3.697
114 1 1 0.0 22.925 7.847 4.251
115 1 2 0.0 18.454 7.739 5.067
116 1 1 0.0 20.99 9.09 4.095
117 1 1 0.0 21.106 6.327 3.925
118 1 2 0.0 21.971 7.939 4.88
119 1 1 0.0 19.578 6.521 4.058
120 1 1 0.0 18.967 8.391 4.408
121 1 2 0.0 1.714 14.058 1.427
122 1 1 0.0 2.809 14.118 5.89
123 1 1 0.0 0.174 14.208 5.817
124 1 2 0.0 1.465 15.735 3.586
125 1 1 0.0 1.63 14.669 2.159
126 1 1 0.0 1.464 13.227 1.944
127 1 2 0.0 1.542 12.28 3.593
128 1 1 0.0 1.772 16.709 3.697
129 1 1 0.0 4.228 14.091 4.251
130 1 2 0.0 -0.243 13.982 5.067
131 1 1 0.0 2.293 15.334 4.095
132 1 1 0.0 2.409 12.571 3.925
133 1 2 0.0 3.274 14.183 4.88
134 1 1 0.0 0.881 12.765 4.058
135 1 1 0.0 0.27 14.635 4.408
136 1 2 0.0 7.946 14.058 1.427
137 1 1 0.0 9.041 14.118 5.89
138 1 1 0.0 6.406 14.208 5.817
139 1 2 0.0 7.698 15.735 3.586
140 1 1 0.0 7.863 14.669 2.159
141 1 1 0.0 7.696 13.227 1.944
142 1 2 0.0 7.774 12.28 3.593
143 1 1 0.0 8.005 16.709 3.697
144 1 1 0.0 10.46 14.091 4.251
145 1 2 0.0 5.989 13.982 5.067
146 1 1 0.0 8.525 15.334 4.095
147 1 1 0.0 8.642 12.571 3.925
148 1 2 0.0 9.507 14.183 4.88
149 1 1 0.0 7.113 12.765 4.058
150 1 1 0.0 6.503 14.635 4.408
151 1 2 0.0 14.178 14.058 1.427
152 1 1 0.0 15.273 14.118 5.89
153 1 1 0.0 12.638 14.208 5.817
154 1 2 0.0 13.93 15.735 3.586
155 1 1 0.0 14.095 14.669 2.159
156 1 1 0.0 13.929 13.227 1.944
157 1 2 0.0 14.006 12.28 3.593
158 1 1 0.0 14.237 16.709 3.697
159 1 1 0.0 16.693 14.091 4.251
160 1 2 0.0 12.222 13.982 5.067
161 1 1 0.0 14.757 15.334 4.095
162 1 1 0.0 14.874 12.571 3.925
163 1 2 0.0 15.739 14.183 4.88
164 1 1 0.0 13.345 12.765 4.058
165 1 1 0.0 12.735 14.635 4.408
166 1 2 0.0 20.411 14.058 1.427
167 1 1 0.0 21.506 14.118 5.89
168 1 1 0.0 18.871 14.208 5.817
169 1 2 0.0 20.162 15.735 3.586
170 1 1 0.0 20.327 14.669 2.159
171 1 1 0.0 20.161 13.227 1.944
172 1 2 0.0 20.239 12.28 3.593
173 1 1 0.0 20.469 16.709 3.697
174 1 1 0.0 22.925 14.091 4.251
175 1 2 0.0 18.454 13.982 5.067
176 1 1 0.0 20.99 15.334 4.095
177 1 1 0.0 21.106 12.571 3.925
178 1 2 0.0 21.971 14.183 4.88
179 1 1 0.0 19.578 12.765 4.058
180 1 1 0.0 18.967 14.635 4.408
181 1 2 0.0 1.714 20.302 1.427
182 1 1 0.0 2.809 20.362 5.89
183 1 1 0.0 0.174 20.452 5.817
184 1 2 0.0 1.465 21.979 3.586
185 1 1 0.0 1.63 20.912 2.159
186 1 1 0.0 1.464 19.471 1.944
187 1 2 0.0 1.542 18.523 3.593
188 1 1 0.0 1.772 22.953 3.697
189 1 1 0.0 4.228 20.335 4.251
190 1 2 0.0 -0.243 20.226 5.067
191 1 1 0.0 2.293 21.578 4.095
192 1 1 0.0 2.409 18.815 3.925
193 1 2 0.0 3.274 20.427 4.88
194 1 1 0.0 0.881 19.009 4.058
195 1 1 0.0 0.27 20.879 4.408
196 1 2 0.0 7.946 20.302 1.427
197 1 1 0.0 9.041 20.362 5.89
198 1 1 0.0 6.406 20.452 5.817
199 1 2 0.0 7.698 21.979 3.586
200 1 1 0.0 7.863 20.912 2.159
201 1 1 0.0 7.696 19.471 1.944
202 1 2 0.0 7.774 18.523 3.593
203 1 1 0.0 8.005 22.953 3.697
204 1 1 0.0 10.46 20.335 4.251
205 1 2 0.0 5.989 20.226 5.067
206 1 1 0.0 8.525 21.578 4.095
207 1 1 0.0 8.642 18.815 3.925
208 1 2 0.0 9.507 20.427 4.88
209 1 1 0.0 7.113 19.009 4.058
210 1 1 0.0 6.503 20.879 4.408
211 1 2 0.0 14.178 20.302 1.427
212 1 1 0.0 15.273 20.362 5.89
213 1 1 0.0 12.638 20.452 5.817
214 1 2 0.0 13.93 21.979 3.586
215 1 1 0.0 14.095 20.912 2.159
216 1 1 0.0 13.929 19.471 1.944
217 1 2 0.0 14.006 18.523 3.593
218 1 1 0.0 14.237 22.953 3.697
219 1 1 0.0 16.693 20.335 4.251
220 1 2 0.0 12.222 20.226 5.067
221 1 1 0.0 14.757 21.578 4.095
222 1 1 0.0 14.874 18.815 3.925
223 1 2 0.0 15.739 20.427 4.88
224 1 1 0.0 13.345 19.009 4.058
225 1 1 0.0 12.735 20.879 4.408
226 1 2 0.0 20.411 20.302 1.427
227 1 1 0.0 21.506 20.362 5.89
228 1 1 0.0 18.871 20.452 5.817
229 1 2 0.0 20.162 21.979 3.586
230 1 1 0.0 20.327 20.912 2.159
231 1 1 0.0 20.161 19.471 1.944
232 1 2 0.0 20.239 18.523 3.593
233 1 1 0.0 20.469 22.953 3.697
234 1 1 0.0 22.925 20.335 4.251
235 1 2 0.0 18.454 20.226 5.067
236 1 1 0.0 20.99 21.578 4.095
237 1 1 0.0 21.106 18.815 3.925
238 1 2 0.0 21.971 20.427 4.88
239 1 1 0.0 19.578 19.009 4.058
240 1 1 0.0 18.967 20.879 4.408
241 1 2 0.0 1.714 1.57 7.218
242 1 1 0.0 2.809 1.63 11.68
243 1 1 0.0 0.174 1.72 11.607
244 1 2 0.0 1.465 3.247 9.376
245 1 1 0.0 1.63 2.181 7.949
246 1 1 0.0 1.464 0.739 7.735
247 1 2 0.0 1.542 -0.208 9.384
248 1 1 0.0 1.772 4.221 9.487
249 1 1 0.0 4.228 1.603 10.042
250 1 2 0.0 -0.243 1.495 10.857
251 1 1 0.0 2.293 2.847 9.886
252 1 1 0.0 2.409 0.084 9.716
253 1 2 0.0 3.274 1.695 10.67
254 1 1 0.0 0.881 0.277 9.849
255 1 1 0.0 0.27 2.147 10.198
256 1 2 0.0 7.946 1.57 7.218
257 1 1 0.0 9.041 1.63 11.68
258 1 1 0.0 6.406 1.72 11.607
259 1 2 0.0 7.698 3.247 9.376
260 1 1 0.0 7.863 2.181 7.949
261 1 1 0.0 7.696 0.739 7.735
262 1 2 0.0 7.774 -0.208 9.384
263 1 1 0.0 8.005 4.221 9.487
264 1 1 0.0 10.46 1.603 10.042
265 1 2 0.0 5.989 1.495 10.857
266 1 1 0.0 8.525 2.847 9.886
267 1 1 0.0 8.642 0.084 9.716
268 1 2 0.0 9.507 1.695 10.67
269 1 1 0.0 7.113 0.277 9.849
270 1 1 0.0 6.503 2.147 10.198
271 1 2 0.0 14.178 1.57 7.218
272 1 1 0.0 15.273 1.63 11.68
273 1 1 0.0 12.638 1.72 11.607
274 1 2 0.0 13.93 3.247 9.376
275 1 1 0.0 14.095 2.181 7.949
276 1 1 0.0 13.929 0.739 7.735
277 1 2 0.0 14.006 -0.208 9.384
278 1 1 0.0 14.237 4.221 9.487
279 1 1 0.0 16.693 1.603 10.042
280 1 2 0.0 12.222 1.495 10.857
281 1 1 0.0 14.757 2.847 9.886
282 1 1 0.0 14.874 0.084 9.716
283 1 2 0.0 15.739 1.695 10.67
284 1 1 0.0 13.345 0.277 9.849
285 1 1 0.0 12.735 2.147 10.198
286 1 2 0.0 20.411 1.57 7.218
287 1 1 0.0 21.506 1.63 11.68
288 1 1 0.0 18.871 1.72 11.607
289 1 2 0.0 20.162 3.247 9.376
290 1 1 0.0 20.327 2.181 7.949
291 1 1 0.0 20.161 0.739 7.735
292 1 2 0.0 20.239 -0.208 9.384
293 1 1 0.0 20.469 4.221 9.487
294 1 1 0.0 22.925 1.603 10.042
295 1 2 0.0 18.454 1.495 10.857
296 1 1 0.0 20.99 2.847 9.886
297 1 1 0.0 21.106 0.084 9.716
298 1 2 0.0 21.971 1.695 10.67
299 1 1 0.0 19.578 0.277 9.849
300 1 1 0.0 18.967 2.147 10.198
301 1 2 0.0 1.714 7.814 7.218
302 1 1 0.0 2.809 7.874 11.68
303 1 1 0.0 0.174 7.964 11.607
304 1 2 0.0 1.465 9.491 9.376
305 1 1 0.0 1.63 8.425 7.949
306 1 1 0.0 1.464 6.983 7.735
307 1 2 0.0 1.542 6.036 9.384
308 1 1 0.0 1.772 10.465 9.487
309 1 1 0.0 4.228 7.847 10.042
310 1 2 0.0 -0.243 7.739 10.857
311 1 1 0.0 2.293 9.09 9.886
312 1 1 0.0 2.409 6.327 9.716
313 1 2 0.0 3.274 7.939 10.67
314 1 1 0.0 0.881 6.521 9.849
315 1 1 0.0 0.27 8.391 10.198
316 1 2 0.0 7.946 7.814 7.218
317 1 1 0.0 9.041 7.874 11.68
318 1 1 0.0 6.406 7.964 11.607
319 1 2 0.0 7.698 9.491 9.376
320 1 1 0.0 7.863 8.425 7.949
321 1 1 0.0 7.696 6.983 7.735
322 1 2 0.0 7.774 6.036 9.384
323 1 1 0.0 8.005 10.465 9.487
324 1 1 0.0 10.46 7.847 10.042
325 1 2 0.0 5.989 7.739 10.857
326 1 1 0.0 8.525 9.09 9.886
327 1 1 0.0 8.642 6.327 9.716
328 1 2 0.0 9.507 7.939 10.67
329 1 1 0.0 7.113 6.521 9.849
330 1 1 0.0 6.503 8.391 10.198
331 1 2 0.0 14.178 7.814 7.218
332 1 1 0.0 15.273 7.874 11.68
333 1 1 0.0 12.638 7.964 11.607
334 1 2 0.0 13.93 9.491 9.376
335 1 1 0.0 14.095 8.425 7.949
336 1 1 0.0 13.929 6.983 7.735
337 1 2 0.0 14.006 6.036 9.384
338 1 1 0.0 14.237 10.465 9.487
339 1 1 0.0 16.693 7.847 10.042
340 1 2 0.0 12.222 7.739 10.857
341 1 1 0.0 14.757 9.09 9.886
342 1 1 0.0 14.874 6.327 9.716
343 1 2 0.0 15.739 7.939 10.67
344 1 1 0.0 13.345 6.521 9.849
345 1 1 0.0 12.735 8.391 10.198
346 1 2 0.0 20.411 7.814 7.218
347 1 1 0.0 21.506 7.874 11.68
348 1 1 0.0 18.871 7.964 11.607
349 1 2 0.0 20.162 9.491 9.376
350 1 1 0.0 20.327 8.425 7.949
351 1 1 0.0 20.161 6.983 7.735
352 1 2 0.0 20.239 6.036 9.384
353 1 1 0.0 20.469 10.465 9.487
354 1 1 0.0 22.925 7.847 10.042
355 1 2 0.0 18.454 7.739 10.857
356 1 1 0.0 20.99 9.09 9.886
357 1 1 0.0 21.106 6.327 9.716
358 1 2 0.0 21.971 7.939 10.67
359 1 1 0.0 19.578 6.521 9.849
360 1 1 0.0 18.967 8.391 10.198
361 1 2 0.0 1.714 14.058 7.218
362 1 1 0.0 2.809 14.118 11.68
363 1 1 0.0 0.174 14.208 11.607
364 1 2 0.0 1.465 15.735 9.376
365 1 1 0.0 1.63 14.669 7.949
366 1 1 0.0 1.464 13.227 7.735
367 1 2 0.0 1.542 12.28 9.384
368 1 1 0.0 1.772 16.709 9.487
369 1 1 0.0 4.228 14.091 10.042
370 1 2 0.0 -0.243 13.982 10.857
371 1 1 0.0 2.293 15.334 9.886
372 1 1 0.0 2.409 12.571 9.716
373 1 2 0.0 3.274 14.183 10.67
374 1 1 0.0 0.881 12.765 9.849
375 1 1 0.0 0.27 14.635 10.198
376 1 2 0.0 7.946 14.058 7.218
377 1 1 0.0 9.041 14.118 11.68
378 1 1 0.0 6.406 14.208 11.607
379 1 2 0.0 7.698 15.735 9.376
380 1 1 0.0 7.863 14.669 7.949
381 1 1 0.0 7.696 13.227 7.735
382 1 2 0.0 7.774 12.28 9.384
383 1 1 0.0 8.005 16.709 9.487
384 1 1 0.0 10.46 14.091 10.042
385 1 2 0.0 5.989 13.982 10.857
386 1 1 0.0 8.525 15.334 9.886
387 1 1 0.0 8.642 12.571 9.716
388 1 2 0.0 9.507 14.183 10.67
389 1 1 0.0 7.113 12.765 9.849
390 1 1 0.0 6.503 14.635 10.198
391 1 2 0.0 14.178 14.058 7.218
392 1 1 0.0 15.273 14.118 11.68
393 1 1 0.0 12.638 14.208 11.607
394 1 2 0.0 13.93 15.735 9.376
395 1 1 0.0 14.095 14.669 7.949
396 1 1 0.0 13.929 13.227 7.735
397 1 2 0.0 14.006 12.28 9.384
398 1 1 0.0 14.237 16.709 9.487
399 1 1 0.0 16.693 14.091 10.042
400 1 2 0.0 12.222 13.982 10.857
401 1 1 0.0 14.757 15.334 9.886
402 1 1 0.0 14.874 12.571 9.716
403 1 2 0.0 15.739 14.183 10.67
404 1 1 0.0 13.345 12.765 9.849
405 1 1 0.0 12.735 14.635 10.198
406 1 2 0.0 20.411 14.058 7.218
407 1 1 0.0 21.506 14.118 11.68
408 1 1 0.0 18.871 14.208 11.607
409 1 2 0.0 20.162 15.735 9.376
410 1 1 0.0 20.327 14.669 7.949
411 1 1 0.0 20.161 13.227 7.735
412 1 2 0.0 20.239 12.28 9.384
413 1 1 0.0 20.469 16.709 9.487
414 1 1 0.0 22.925 14.091 10.042
415 1 2 0.0 18.454 13.982 10.857
416 1 1 0.0 20.99 15.334 9.886
417 1 1 0.0 21.106 12.571 9.716
418 1 2 0.0 21.971 14.183 10.67
419 1 1 0.0 19.578 12.765 9.849
420 1 1 0.0 18.967 14.635 10.198
421 1 2 0.0 1.714 20.302 7.218
422 1 1 0.0 2.809 20.362 11.68
423 1 1 0.0 0.174 20.452 11.607
424 1 2 0.0 1.465 21.979 9.376
425 1 1 0.0 1.63 20.912 7.949
426 1 1 0.0 1.464 19.471 7.735
427 1 2 0.0 1.542 18.523 9.384
428 1 1 0.0 1.772 22.953 9.487
429 1 1 0.0 4.228 20.335 10.042
430 1 2 0.0 -0.243 20.226 10.857
431 1 1 0.0 2.293 21.578 9.886
432 1 1 0.0 2.409 18.815 9.716
433 1 2 0.0 3.274 20.427 10.67
434 1 1 0.0 0.881 19.009 9.849
435 1 1 0.0 0.27 20.879 10.198
436 1 2 0.0 7.946 20.302 7.218
437 1 1 0.0 9.041 20.362 11.68
438 1 1 0.0 6.406 20.452 11.607
439 1 2 0.0 7.698 21.979 9.376
440 1 1 0.0 7.863 20.912 7.949
441 1 1 0.0 7.696 19.471 7.735
442 1 2 0.0 7.774 18.523 9.384
443 1 1 0.0 8.005 22.953 9.487
444 1 1 0.0 10.46 20.335 10.042
445 1 2 0.0 5.989 20.226 10.857
446 1 1 0.0 8.525 21.578 9.886
447 1 1 0.0 8.642 18.815 9.716
448 1 2 0.0 9.507 20.427 10.67
449 1 1 0.0 7.113 19.009 9.849
450 1 1 0.0 6.503 20.879 10.198
451 1 2 0.0 14.178 20.302 7.218
452 1 1 0.0 15.273 20.362 11.68
453 1 1 0.0 12.638 20.452 11.607
454 1 2 0.0 13.93 21.979 9.376
455 1 1 0.0 14.095 20.912 7.949
456 1 1 0.0 13.929 19.471 7.735
457 1 2 0.0 14.006 18.523 9.384
458 1 1 0.0 14.237 22.953 9.487
459 1 1 0.0 16.693 20.335 10.042
460 1 2 0.0 12.222 20.226 10.857
461 1 1 0.0 14.757 21.578 9.886
462 1 1 0.0 14.874 18.815 9.716
463 1 2 0.0 15.739 20.427 10.67
464 1 1 0.0 13.345 19.009 9.849
465 1 1 0.0 12.735 20.879 10.198
466 1 2 0.0 20.411 20.302 7.218
467 1 1 0.0 21.506 20.362 11.68
468 1 1 0.0 18.871 20.452 11.607
469 1 2 0.0 20.162 21.979 9.376
470 1 1 0.0 20.327 20.912 7.949
471 1 1 0.0 20.161 19.471 7.735
472 1 2 0.0 20.239 18.523 9.384
473 1 1 0.0 20.469 22.953 9.487
474 1 1 0.0 22.925 20.335 10.042
475 1 2 0.0 18.454 20.226 10.857
476 1 1 0.0 20.99 21.578 9.886
477 1 1 0.0 21.106 18.815 9.716
478 1 2 0.0 21.971 20.427 10.67
479 1 1 0.0 19.578 19.009 9.849
480 1 1 0.0 18.967 20.879 10.198
481 1 2 0.0 1.714 1.57 13.008
482 1 1 0.0 2.809 1.63 17.47
483 1 1 0.0 0.174 1.72 17.398
484 1 2 0.0 1.465 3.247 15.167
485 1 1 0.0 1.63 2.181 13.739
486 1 1 0.0 1.464 0.739 13.525
487 1 2 0.0 1.542 -0.208 15.174
488 1 1 0.0 1.772 4.221 15.277
489 1 1 0.0 4.228 1.603 15.832
490 1 2 0.0 -0.243 1.495 16.647
491 1 1 0.0 2.293 2.847 15.676
492 1 1 0.0 2.409 0.084 15.506
493 1 2 0.0 3.274 1.695 16.461
494 1 1 0.0 0.881 0.277 15.639
495 1 1 0.0 0.27 2.147 15.988
496 1 2 0.0 7.946 1.57 13.008
497 1 1 0.0 9.041 1.63 17.47
498 1 1 0.0 6.406 1.72 17.398
499 1 2 0.0 7.698 3.247 15.167
500 1 1 0.0 7.863 2.181 13.739
501 1 1 0.0 7.696 0.739 13.525
502 1 2 0.0 7.774 -0.208 15.174
503 1 1 0.0 8.005 4.221 15.277
504 1 1 0.0 10.46 1.603 15.832
505 1 2 0.0 5.989 1.495 16.647
506 1 1 0.0 8.525 2.847 15.676
507 1 1 0.0 8.642 0.084 15.506
508 1 2 0.0 9.507 1.695 16.461
509 1 1 0.0 7.113 0.277 15.639
510 1 1 0.0 6.503 2.147 15.988
511 1 2 0.0 14.178 1.57 13.008
512 1 1 0.0 15.273 1.63 17.47
513 1 1 0.0 12.638 1.72 17.398
514 1 2 0.0 13.93 3.247 15.167
515 1 1 0.0 14.095 2.181 13.739
516 1 1 0.0 13.929 0.739 13.525
517 1 2 0.0 14.006 -0.208 15.174
518 1 1 0.0 14.237 4.221 15.277
519 1 1 0.0 16.693 1.603 15.832
520 1 2 0.0 12.222 1.495 16.647
521 1 1 0.0 14.757 2.847 15.676
522 1 1 0.0 14.874 0.084 15.506
523 1 2 0.0 15.739 1.695 16.461
524 1 1 0.0 13.345 0.277 15.639
525 1 1 0.0 12.735 2.147 15.988
526 1 2 0.0 20.411 1.57 13.008
527 1 1 0.0 21.506 1.63 17.47
528 1 1 0.0 18.871 1.72 17.398
529 1 2 0.0 20.162 3.247 15.167
530 1 1 0.0 20.327 2.181 13.739
531 1 1 0.0 20.161 0.739 13.525
532 1 2 0.0 20.239 -0.208 15.174
533 1 1 0.0 20.469 4.221 15.277
534 1 1 0.0 22.925 1.603 15.832
535 1 2 0.0 18.454 1.495 16.647
536 1 1 0.0 20.99 2.847 15.676
537 1 1 0.0 21.106 0.084 15.506
538 1 2 0.0 21.971 1.695 16.461
539 1 1 0.0 19.578 0.277 15.639
540 1 1 0.0 18.967 2.147 15.988
541 1 2 0.0 1.714 7.814 13.008
542 1 1 0.0 2.809 7.874 17.47
543 1 1 0.0 0.174 7.964 17.398
544 1 2 0.0 1.465 9.491 15.167
545 1 1 0.0 1.63 8.425 13.739
546 1 1 0.0 1.464 6.983 13.525
547 1 2 0.0 1.542 6.036 15.174
548 1 1 0.0 1.772 10.465 15.277
549 1 1 0.0 4.228 7.847 15.832
550 1 2 0.0 -0.243 7.739 16.647
551 1 1 0.0 2.293 9.09 15.676
552 1 1 0.0 2.409 6.327 15.506
553 1 2 0.0 3.274 7.939 16.461
554 1 1 0.0 0.881 6.521 15.639
555 1 1 0.0 0.27 8.391 15.988
556 1 2 0.0 7.946 7.814 13.008
557 1 1 0.0 9.041 7.874 17.47
558 1 1 0.0 6.406 7.964 17.398
559 1 2 0.0 7.698 9.491 15.167
560 1 1 0.0 7.863 8.425 13.739
561 1 1 0.0 7.696 6.983 13.525
562 1 2 0.0 7.774 6.036 15.174
563 1 1 0.0 8.005 10.465 15.277
564 1 1 0.0 10.46 7.847 15.832
565 1 2 0.0 5.989 7.739 16.647
566 1 1 0.0 8.525 9.09 15.676
567 1 1 0.0 8.642 6.327 15.506
568 1 2 0.0 9.507 7.939 16.461
569 1 1 0.0 7.113 6.521 15.639
570 1 1 0.0 6.503 8.391 15.988
571 1 2 0.0 14.178 7.814 13.008
572 1 1 0.0 15.273 7.874 17.47
573 1 1 0.0 12.638 7.964 17.398
574 1 2 0.0 13.93 9.491 15.167
575 1 1 0.0 14.095 8.425 13.739
576 1 1 0.0 13.929 6.983 13.525
577 1 2 0.0 14.006 6.036 15.174
578 1 1 0.0 14.237 10.465 15.277
579 1 1 0.0 16.693 7.847 15.832
580 1 2 0.0 12.222 7.739 16.647
581 1 1 0.0 14.757 9.09 15.676
582 1 1 0.0 14.874 6.327 15.506
583 1 2 0.0 15.739 7.939 16.461
584 1 1 0.0 13.345 6.521 15.639
585 1 1 0.0 12.735 8.391 15.988
586 1 2 0.0 20.411 7.814 13.008
587 1 1 0.0 21.506 7.874 17.47
588 1 1 0.0 18.871 7.964 17.398
589 1 2 0.0 20.162 9.491 15.167
590 1 1 0.0 20.327 8.425 13.739
591 1 1 0.0 20.161 6.983 13.525
592 1 2 0.0 20.239 6.036 15.174
593 1 1 0.0 20.469 10.465 15.277
594 1 1 0.0 22.925 7.847 15.832
595 1 2 0.0 18.454 7.739 16.647
596 1 1 0.0 20.99 9.09 15.676
597 1 1 0.0 21.106 6.327 15.506
598 1 2 0.0 21.971 7.939 16.461
599 1 1 0.0 19.578 6.521 15.639
600 1 1 0.0 18.967 8.391 15.988
601 1 2 0.0 1.714 14.058 13.008
602 1 1 0.0 2.809 14.118 17.47
603 1 1 0.0 0.174 14.208 17.398
604 1 2 0.0 1.465 15.735 15.167
605 1 1 0.0 1.63 14.669 13.739
606 1 1 0.0 1.464 13.227 13.525
607 1 2 0.0 1.542 12.28 15.174
608 1 1 0.0 1.772 16.709 15.277
609 1 1 0.0 4.228 14.091 15.832
610 1 2 0.0 -0.243 13.982 16.647
611 1 1 0.0 2.293 15.334 15.676
612 1 1 0.0 2.409 12.571 15.506
613 1 2 0.0 3.274 14.183 16.461
614 1 1 0.0 0.881 12.765 15.639
615 1 1 0.0 0.27 14.635 15.988
616 1 2 0.0 7.946 14.058 13.008
617 1 1 0.0 9.041 14.118 17.47
618 1 1 0.0 6.406 14.208 17.398
619 1 2 0.0 7.698 15.735 15.167
620 1 1 0.0 7.863 14.669 13.739
621 1 1 0.0 7.696 13.227 13.525
622 1 2 0.0 7.774 12.28 15.174
623 1 1 0.0 8.005 16.709 15.277
624 1 1 0.0 10.46 14.091 15.832
625 1 2 0.0 5.989 13.982 16.647
626 1 1 0.0 8.525 15.334 15.676
627 1 1 0.0 8.642 12.571 15.506
628 1 2 0.0 9.507 14.183 16.461
629 1 1 0.0 7.113 12.765 15.639
630 1 1 0.0 6.503 14.635 15.988
631 1 2 0.0 14.178 14.058 13.008
632 1 1 0.0 15.273 14.118 17.47
633 1 1 0.0 12.638 14.208 17.398
634 1 2 0.0 13.93 15.735 15.167
635 1 1 0.0 14.095 14.669 13.739
636 1 1 0.0 13.929 13.227 13.525
637 1 2 0.0 14.006 12.28 15.174
638 1 1 0.0 14.237 16.709 15.277
639 1 1 0.0 16.693 14.091 15.832
640 1 2 0.0 12.222 13.982 16.647
641 1 1 0.0 14.757 15.334 15.676
642 1 1 0.0 14.874 12.571 15.506
643 1 2 0.0 15.739 14.183 16.461
644 1 1 0.0 13.345 12.765 15.639
645 1 1 0.0 12.735 14.635 15.988
646 1 2 0.0 20.411 14.058 13.008
647 1 1 0.0 21.506 14.118 17.47
648 1 1 0.0 18.871 14.208 17.398
649 1 2 0.0 20.162 15.735 15.167
650 1 1 0.0 20.327 14.669 13.739
651 1 1 0.0 20.161 13.227 13.525
652 1 2 0.0 20.239 12.28 15.174
653 1 1 0.0 20.469 16.709 15.277
654 1 1 0.0 22.925 14.091 15.832
655 1 2 0.0 18.454 13.982 16.647
656 1 1 0.0 20.99 15.334 15.676
657 1 1 0.0 21.106 12.571 15.506
658 1 2 0.0 21.971 14.183 16.461
659 1 1 0.0 19.578 12.765 15.639
660 1 1 0.0 18.967 14.635 15.988
661 1 2 0.0 1.714 20.302 13.008
662 1 1 0.0 2.809 20.362 17.47
663 1 1 0.0 0.174 20.452 17.398
664 1 2 0.0 1.465 21.979 15.167
665 1 1 0.0 1.63 20.912 13.739
666 1 1 0.0 1.464 19.471 13.525
667 1 2 0.0 1.542 18.523 15.174
668 1 1 0.0 1.772 22.953 15.277
669 1 1 0.0 4.228 20.335 15.832
670 1 2 0.0 -0.243 20.226 16.647
671 1 1 0.0 2.293 21.578 15.676
672 1 1 0.0 2.409 18.815 15.506
673 1 2 0.0 3.274 20.427 16.461
674 1 1 0.0 0.881 19.009 15.639
675 1 1 0.0 0.27 20.879 15.988
676 1 2 0.0 7.946 20.302 13.008
677 1 1 0.0 9.041 20.362 17.47
678 1 1 0.0 6.406 20.452 17.398
679 1 2 0.0 7.698 21.979 15.167
680 1 1 0.0 7.863 20.912 13.739
681 1 1 0.0 7.696 19.471 13.525
682 1 2 0.0 7.774 18.523 15.174
683 1 1 0.0 8.005 22.953 15.277
684 1 1 0.0 10.46 20.335 15.832
685 1 2 0.0 5.989 20.226 16.647
686 1 1 0.0 8.525 21.578 15.676
687 1 1 0.0 8.642 18.815 15.506
688 1 2 0.0 9.507 20.427 16.461
689 1 1 0.0 7.113 19.009 15.639
690 1 1 0.0 6.503 20.879 15.988
691 1 2 0.0 14.178 20.302 13.008
692 1 1 0.0 15.273 20.362 17.47
693 1 1 0.0 12.638 20.452 17.398
694 1 2 0.0 13.93 21.979 15.167
695 1 1 0.0 14.095 20.912 13.739
696 1 1 0.0 13.929 19.471 13.525
697 1 2 0.0 14.006 18.523 15.174
698 1 1 0.0 14.237 22.953 15.277
699 1 1 0.0 16.693 20.335 15.832
700 1 2 0.0 12.222 20.226 16.647
701 1 1 0.0 14.757 21.578 15.676
702 1 1 0.0 14.874 18.815 15.506
703 1 2 0.0 15.739 20.427 16.461
704 1 1 0.0 13.345 19.009 15.639
705 1 1 0.0 12.735 20.879 15.988
706 1 2 0.0 20.411 20.302 13.008
707 1 1 0.0 21.506 20.362 17.47
708 1 1 0.0 18.871 20.452 17.398
709 1 2 0.0 20.162 21.979 15.167
710 1 1 0.0 20.327 20.912 13.739
711 1 1 0.0 20.161 19.471 13.525
712 1 2 0.0 20.239 18.523 15.174
713 1 1 0.0 20.469 22.953 15.277
714 1 1 0.0 22.925 20.335 15.832
715 1 2 0.0 18.454 20.226 16.647
716 1 1 0.0 20.99 21.578 15.676
717 1 1 0.0 21.106 18.815 15.506
718 1 2 0.0 21.971 20.427 16.461
719 1 1 0.0 19.578 19.009 15.639
720 1 1 0.0 18.967 20.879 15.988
721 1 2 0.0 1.714 1.57 18.798
722 1 1 0.0 2.809 1.63 23.261
723 1 1 0.0 0.174 1.72 23.188
724 1 2 0.0 1.465 3.247 20.957
725 1 1 0.0 1.63 2.181 19.53
726 1 1 0.0 1.464 0.739 19.315
727 1 2 0.0 1.542 -0.208 20.964
728 1 1 0.0 1.772 4.221 21.067
729 1 1 0.0 4.228 1.603 21.622
730 1 2 0.0 -0.243 1.495 22.437
731 1 1 0.0 2.293 2.847 21.466
732 1 1 0.0 2.409 0.084 21.296
733 1 2 0.0 3.274 1.695 22.251
734 1 1 0.0 0.881 0.277 21.429
735 1 1 0.0 0.27 2.147 21.778
736 1 2 0.0 7.946 1.57 18.798
737 1 1 0.0 9.041 1.63 23.261
738 1 1 0.0 6.406 1.72 23.188
739 1 2 0.0 7.698 3.247 20.957
740 1 1 0.0 7.863 2.181 19.53
741 1 1 0.0 7.696 0.739 19.315
742 1 2 0.0 7.774 -0.208 20.964
743 1 1 0.0 8.005 4.221 21.067
744 1 1 0.0 10.46 1.603 21.622
745 1 2 0.0 5.989 1.495 22.437
746 1 1 0.0 8.525 2.847 21.466
747 1 1 0.0 8.642 0.084 21.296
748 1 2 0.0 9.507 1.695 22.251
749 1 1 0.0 7.113 0.277 21.429
750 1 1 0.0 6.503 2.147 21.778
751 1 2 0.0 14.178 1.57 18.798
752 1 1 0.0 15.273 1.63 23.261
753 1 1 0.0 12.638 1.72 23.188
754 1 2 0.0 13.93 3.247 20.957
755 1 1 0.0 14.095 2.181 19.53
756 1 1 0.0 13.929 0.739 19.315
757 1 2 0.0 14.006 -0.208 20.964
758 1 1 0.0 14.237 4.221 21.067
759 1 1 0.0 16.693 1.603 21.622
760 1 2 0.0 12.222 1.495 22.437
761 1 1 0.0 14.757 2.847 21.466
762 1 1 0.0 14.874 0.084 21.296
763 1 2 0.0 15.739 1.695 22.251
764 1 1 0.0 13.345 0.277 21.429
765 1 1 0.0 12.735 2.147 21.778
766 1 2 0.0 20.411 1.57 18.798
767 1 1 0.0 21.506 1.63 23.261
768 1 1 0.0 18.871 1.72 23.188
769 1 2 0.0 20.162 3.247 20.957
770 1 1 0.0 20.327 2.181 19.53
771 1 1 0.0 20.161 0.739 19.315
772 1 2 0.0 20.239 -0.208 20.964
773 1 1 0.0 20.469 4.221 21.067
774 1 1 0.0 22.925 1.603 21.622
775 1 2 0.0 18.454 1.495 22.437
776 1 1 0.0 20.99 2.847 21.466
777 1 1 0.0 21.106 0.084 21.296
778 1 2 0.0 21.971 1.695 22.251
779 1 1 0.0 19.578 0.277 21.429
780 1 1 0.0 18.967 2.147 21.778
781 1 2 0.0 1.714 7.814 18.798
782 1 1 0.0 2.809 7.874 23.261
783 1 1 0.0 0.174 7.964 23.188
784 1 2 0.0 1.465 9.491 20.957
785 1 1 0.0 1.63 8.425 19.53
786 1 1 0.0 1.464 6.983 19.315
787 1 2 0.0 1.542 6.036 20.964
788 1 1 0.0 1.772 10.465 21.067
789 1 1 0.0 4.228 7.847 21.622
790 1 2 0.0 -0.243 7.739 22.437
791 1 1 0.0 2.293 9.09 21.466
792 1 1 0.0 2.409 6.327 21.296
793 1 2 0.0 3.274 7.939 22.251
794 1 1 0.0 0.881 6.521 21.429
795 1 1 0.0 0.27 8.391 21.778
796 1 2 0.0 7.946 7.814 18.798
797 1 1 0.0 9.041 7.874 23.261
798 1 1 0.0 6.406 7.964 23.188
799 1 2 0.0 7.698 9.491 20.957
800 1 1 0.0 7.863 8.425 19.53
801 1 1 0.0 7.696 6.983 19.315
802 1 2 0.0 7.774 6.036 20.964
803 1 1 0.0 8.005 10.465 21.067
804 1 1 0.0 10.46 7.847 21.622
805 1 2 0.0 5.989 7.739 22.437
806 1 1 0.0 8.525 9.09 21.466
807 1 1 0.0 8.642 6.327 21.296
808 1 2 0.0 9.507 7.939 22.251
809 1 1 0.0 7.113 6.521 21.429
810 1 1 0.0 6.503 8.391 21.778
811 1 2 0.0 14.178 7.814 18.798
812 1 1 0.0 15.273 7.874 23.261
813 1 1 0.0 12.638 7.964 23.188
814 1 2 0.0 13.93 9.491 20.957
815 1 1 0.0 14.095 8.425 19.53
816 1 1 0.0 13.929 6.983 19.315
817 1 2 0.0 14.006 6.036 20.964
818 1 1 0.0 14.237 10.465 21.067
819 1 1 0.0 16.693 7.847 21.622
820 1 2 0.0 12.222 7.739 22.437
821 1 1 0.0 14.757 9.09 21.466
822 1 1 0.0 14.874 6.327 21.296
823 1 2 0.0 15.739 7.939 22.251
824 1 1 0.0 13.345 6.521 21.429
825 1 1 0.0 12.735 8.391 21.778
826 1 2 0.0 20.411 7.814 18.798
827 1 1 0.0 21.506 7.874 23.261
828 1 1 0.0 18.871 7.964 23.188
829 1 2 0.0 20.162 9.491 20.957
830 1 1 0.0 20.327 8.425 19.53
831 1 1 0.0 20.161 6.983 19.315
832 1 2 0.0 20.239 6.036 20.964
833 1 1 0.0 20.469 10.465 21.067
834 1 1 0.0 22.925 7.847 21.622
835 1 2 0.0 18.454 7.739 22.437
836 1 1 0.0 20.99 9.09 21.466
837 1 1 0.0 21.106 6.327 21.296
838 1 2 0.0 21.971 7.939 22.251
839 1 1 0.0 19.578 6.521 21.429
840 1 1 0.0 18.967 8.391 21.778
841 1 2 0.0 1.714 14.058 18.798
842 1 1 0.0 2.809 14.118 23.261
843 1 1 0.0 0.174 14.208 23.188
844 1 2 0.0 1.465 15.735 20.957
845 1 1 0.0 1.63 14.669 19.53
846 1 1 0.0 1.464 13.227 19.315
847 1 2 0.0 1.542 12.28 20.964
848 1 1 0.0 1.772 16.709 21.067
849 1 1 0.0 4.228 14.091 21.622
850 1 2 0.0 -0.243 13.982 22.437
851 1 1 0.0 2.293 15.334 21.466
852 1 1 0.0 2.409 12.571 21.296
853 1 2 0.0 3.274 14.183 22.251
854 1 1 0.0 0.881 12.765 21.429
855 1 1 0.0 0.27 14.635 21.778
856 1 2 0.0 7.946 14.058 18.798
857 1 1 0.0 9.041 14.118 23.261
858 1 1 0.0 6.406 14.208 23.188
859 1 2 0.0 7.698 15.735 20.957
860 1 1 0.0 7.863 14.669 19.53
861 1 1 0.0 7.696 13.227 19.315
862 1 2 0.0 7.774 12.28 20.964
863 1 1 0.0 8.005 16.709 21.067
864 1 1 0.0 10.46 14.091 21.622
865 1 2 0.0 5.989 13.982 22.437
866 1 1 0.0 8.525 15.334 21.466
867 1 1 0.0 8.642 12.571 21.296
868 1 2 0.0 9.507 14.183 22.251
869 1 1 0.0 7.113 12.765 21.429
870 1 1 0.0 6.503 14.635 21.778
871 1 2 0.0 14.178 14.058 18.798
872 1 1 0.0 15.273 14.118 23.261
873 1 1 0.0 12.638 14.208 23.188
874 1 2 0.0 13.93 15.735 20.957
875 1 1 0.0 14.095 14.669 19.53
876 1 1 0.0 13.929 13.227 19.315
877 1 2 0.0 14.006 12.28 20.964
878 1 1 0.0 14.237 16.709 21.067
879 1 1 0.0 16.693 14.091 21.622
880 1 2 0.0 12.222 13.982 22.437
881 1 1 0.0 14.757 15.334 21.466
882 1 1 0.0 14.874 12.571 21.296
883 1 2 0.0 15.739 14.183 22.251
884 1 1 0.0 13.345 12.765 21.429
885 1 1 0.0 12.735 14.635 21.778
886 1 2 0.0 20.411 14.058 18.798
887 1 1 0.0 21.506 14.118 23.261
888 1 1 0.0 18.871 14.208 23.188
889 1 2 0.0 20.162 15.735 20.957
890 1 1 0.0 20.327 14.669 19.53
891 1 1 0.0 20.161 13.227 19.315
892 1 2 0.0 20.239 12.28 20.964
893 1 1 0.0 20.469 16.709 21.067
894 1 1 0.0 22.925 14.091 21.622
895 1 2 0.0 18.454 13.982 22.437
896 1 1 0.0 20.99 15.334 21.466
897 1 1 0.0 21.106 12.571 21.296
898 1 2 0.0 21.971 14.183 22.251
899 1 1 0.0 19.578 12.765 21.429
900 1 1 0.0 18.967 14.635 21.778
901 1 2 0.0 1.714 20.302 18.798
902 1 1 0.0 2.809 20.362 23.261
903 1 1 0.0 0.174 20.452 23.188
904 1 2 0.0 1.465 21.979 20.957
905 1 1 0.0 1.63 20.912 19.53
906 1 1 0.0 1.464 19.471 19.315
907 1 2 0.0 1.542 18.523 20.964
908 1 1 0.0 1.772 22.953 21.067
909 1 1 0.0 4.228 20.335 21.622
910 1 2 0.0 -0.243 20.226 22.437
911 1 1 0.0 2.293 21.578 21.466
912 1 1 0.0 2.409 18.815 21.296
913 1 2 0.0 3.274 20.427 22.251
914 1 1 0.0 0.881 19.009 21.429
915 1 1 0.0 0.27 20.879 21.778
916 1 2 0.0 7.946 20.302 18.798
917 1 1 0.0 9.041 20.362 23.261
918 1 1 0.0 6.406 20.452 23.188
919 1 2 0.0 7.698 21.979 20.957
920 1 1 0.0 7.863 20.912 19.53
921 1 1 0.0 7.696 19.471 19.315
922 1 2 0.0 7.774 18.523 20.964
923 1 1 0.0 8.005 22.953 21.067
924 1 1 0.0 10.46 20.335 21.622
925 1 2 0.0 5.989 20.226 22.437
926 1 1 0.0 8.525 21.578 21.466
927 1 1 0.0 8.642 18.815 21.296
928 1 2 0.0 9.507 20.427 22.251
929 1 1 0.0 7.113 19.009 21.429
930 1 1 0.0 6.503 20.879 21.778
931 1 2 0.0 14.178 20.302 18.798
932 1 1 0.0 15.273 20.362 23.261
933 1 1 0.0 12.638 20.452 23.188
934 1 2 0.0 13.93 21.979 20.957
935 1 1 0.0 14.095 20.912 19.53
936 1 1 0.0 13.929 19.471 19.315
937 1 2 0.0 14.006 18.523 20.964
938 1 1 0.0 14.237 22.953 21.067
939 1 1 0.0 16.693 20.335 21.622
940 1 2 0.0 12.222 20.226 22.437
941 1 1 0.0 14.757 21.578 21.466
942 1 1 0.0 14.874 18.815 21.296
943 1 2 0.0 15.739 20.427 22.251
944 1 1 0.0 13.345 19.009 21.429
945 1 1 0.0 12.735 20.879 21.778
946 1 2 0.0 20.411 20.302 18.798
947 1 1 0.0 21.506 20.362 23.261
948 1 1 0.0 18.871 20.452 23.188
949 1 2 0.0 20.162 21.979 20.957
950 1 1 0.0 20.327 20.912 19.53
951 1 1 0.0 20.161 19.471 19.315
952 1 2 0.0 20.239 18.523 20.964