# LAMMPS data file written by OVITO Basic 3.5.4
810 atoms
540 bonds
2 atom types
1 bond types
-0.236 18.783 xlo xhi
-0.272 18.822 ylo yhi
-0.027 17.138 zlo zhi

Masses

1 1.00794  # H
2 15.9994  # O

Atoms  # full

1 1 2 0.0 4.684 1.592 4.279
2 1 1 0.0 4.531 0.917 4.94
3 1 1 0.0 4.009 1.439 3.618
4 1 2 0.0 2.938 1.593 2.125
5 1 1 0.0 3.365 0.914 1.602
6 1 1 0.0 2.001 1.435 2.003
7 1 2 0.0 -0.236 4.613 3.631
8 1 1 0.0 0.274 4.535 2.825
9 1 1 0.0 0.277 5.203 4.184
10 1 2 0.0 3.246 4.595 3.581
11 1 1 0.0 2.819 5.274 4.104
12 1 1 0.0 4.183 4.753 3.703
13 1 2 0.0 1.546 2.859 4.982
14 1 1 0.0 2.303 3.324 4.626
15 1 1 0.0 0.789 3.325 4.626
16 1 2 0.0 6.42 1.518 2.075
17 1 1 0.0 5.908 2.11 1.523
18 1 1 0.0 5.91 1.44 2.881
19 1 2 0.0 4.667 3.333 0.778
20 1 1 0.0 4.746 2.822 -0.027
21 1 1 0.0 4.076 2.821 1.331
22 1 2 0.0 1.5 4.688 1.426
23 1 1 0.0 2.175 4.534 2.088
24 1 1 0.0 1.653 4.011 0.766
25 1 2 0.0 4.592 6.034 0.728
26 1 1 0.0 5.272 6.46 1.25
27 1 1 0.0 4.749 5.098 0.849
28 1 2 0.0 1.546 0.154 4.884
29 1 1 0.0 1.546 -0.272 5.741
30 1 1 0.0 1.546 1.09 5.081
31 1 2 0.0 10.865 1.592 4.279
32 1 1 0.0 10.712 0.917 4.94
33 1 1 0.0 10.19 1.439 3.618
34 1 2 0.0 9.119 1.593 2.125
35 1 1 0.0 9.546 0.914 1.602
36 1 1 0.0 8.183 1.435 2.003
37 1 2 0.0 5.945 4.613 3.631
38 1 1 0.0 6.455 4.535 2.825
39 1 1 0.0 6.458 5.203 4.184
40 1 2 0.0 9.427 4.595 3.581
41 1 1 0.0 9.0 5.274 4.104
42 1 1 0.0 10.364 4.753 3.703
43 1 2 0.0 7.727 2.859 4.982
44 1 1 0.0 8.484 3.324 4.626
45 1 1 0.0 6.97 3.325 4.626
46 1 2 0.0 12.601 1.518 2.075
47 1 1 0.0 12.089 2.11 1.523
48 1 1 0.0 12.091 1.44 2.881
49 1 2 0.0 10.848 3.333 0.778
50 1 1 0.0 10.927 2.822 -0.027
51 1 1 0.0 10.257 2.821 1.331
52 1 2 0.0 7.681 4.688 1.426
53 1 1 0.0 8.356 4.534 2.088
54 1 1 0.0 7.834 4.011 0.766
55 1 2 0.0 10.773 6.034 0.728
56 1 1 0.0 11.453 6.46 1.25
57 1 1 0.0 10.93 5.098 0.849
58 1 2 0.0 7.727 0.154 4.884
59 1 1 0.0 7.727 -0.272 5.741
60 1 1 0.0 7.727 1.09 5.081
61 1 2 0.0 17.046 1.592 4.279
62 1 1 0.0 16.893 0.917 4.94
63 1 1 0.0 16.371 1.439 3.618
64 1 2 0.0 15.3 1.593 2.125
65 1 1 0.0 15.727 0.914 1.602
66 1 1 0.0 14.364 1.435 2.003
67 1 2 0.0 12.126 4.613 3.631
68 1 1 0.0 12.636 4.535 2.825
69 1 1 0.0 12.639 5.203 4.184
70 1 2 0.0 15.609 4.595 3.581
71 1 1 0.0 15.181 5.274 4.104
72 1 1 0.0 16.545 4.753 3.703
73 1 2 0.0 13.908 2.859 4.982
74 1 1 0.0 14.665 3.324 4.626
75 1 1 0.0 13.152 3.325 4.626
76 1 2 0.0 18.783 1.518 2.075
77 1 1 0.0 18.27 2.11 1.523
78 1 1 0.0 18.273 1.44 2.881
79 1 2 0.0 17.029 3.333 0.778
80 1 1 0.0 17.108 2.822 -0.027
81 1 1 0.0 16.438 2.821 1.331
82 1 2 0.0 13.862 4.688 1.426
83 1 1 0.0 14.537 4.534 2.088
84 1 1 0.0 14.015 4.011 0.766
85 1 2 0.0 16.954 6.034 0.728
86 1 1 0.0 17.634 6.46 1.25
87 1 1 0.0 17.111 5.098 0.849
88 1 2 0.0 13.908 0.154 4.884
89 1 1 0.0 13.908 -0.272 5.741
90 1 1 0.0 13.908 1.09 5.081
91 1 2 0.0 4.684 7.773 4.279
92 1 1 0.0 4.531 7.098 4.94
93 1 1 0.0 4.009 7.62 3.618
94 1 2 0.0 2.938 7.774 2.125
95 1 1 0.0 3.365 7.095 1.602
96 1 1 0.0 2.001 7.616 2.003
97 1 2 0.0 -0.236 10.794 3.631
98 1 1 0.0 0.274 10.716 2.825
99 1 1 0.0 0.277 11.384 4.184
100 1 2 0.0 3.246 10.776 3.581
101 1 1 0.0 2.819 11.455 4.104
102 1 1 0.0 4.183 10.934 3.703
103 1 2 0.0 1.546 9.04 4.982
104 1 1 0.0 2.303 9.505 4.626
105 1 1 0.0 0.789 9.506 4.626
106 1 2 0.0 6.42 7.699 2.075
107 1 1 0.0 5.908 8.291 1.523
108 1 1 0.0 5.91 7.621 2.881
109 1 2 0.0 4.667 9.515 0.778
110 1 1 0.0 4.746 9.003 -0.027
111 1 1 0.0 4.076 9.002 1.331
112 1 2 0.0 1.5 10.869 1.426
113 1 1 0.0 2.175 10.716 2.088
114 1 1 0.0 1.653 10.192 0.766
115 1 2 0.0 4.592 12.215 0.728
116 1 1 0.0 5.272 12.641 1.25
117 1 1 0.0 4.749 11.279 0.849
118 1 2 0.0 1.546 6.335 4.884
119 1 1 0.0 1.546 5.909 5.741
120 1 1 0.0 1.546 7.271 5.081
121 1 2 0.0 10.865 7.773 4.279
122 1 1 0.0 10.712 7.098 4.94
123 1 1 0.0 10.19 7.62 3.618
124 1 2 0.0 9.119 7.774 2.125
125 1 1 0.0 9.546 7.095 1.602
126 1 1 0.0 8.183 7.616 2.003
127 1 2 0.0 5.945 10.794 3.631
128 1 1 0.0 6.455 10.716 2.825
129 1 1 0.0 6.458 11.384 4.184
130 1 2 0.0 9.427 10.776 3.581
131 1 1 0.0 9.0 11.455 4.104
132 1 1 0.0 10.364 10.934 3.703
133 1 2 0.0 7.727 9.04 4.982
134 1 1 0.0 8.484 9.505 4.626
135 1 1 0.0 6.97 9.506 4.626
136 1 2 0.0 12.601 7.699 2.075
137 1 1 0.0 12.089 8.291 1.523
138 1 1 0.0 12.091 7.621 2.881
139 1 2 0.0 10.848 9.515 0.778
140 1 1 0.0 10.927 9.003 -0.027
141 1 1 0.0 10.257 9.002 1.331
142 1 2 0.0 7.681 10.869 1.426
143 1 1 0.0 8.356 10.716 2.088
144 1 1 0.0 7.834 10.192 0.766
145 1 2 0.0 10.773 12.215 0.728
146 1 1 0.0 11.453 12.641 1.25
147 1 1 0.0 10.93 11.279 0.849
148 1 2 0.0 7.727 6.335 4.884
149 1 1 0.0 7.727 5.909 5.741
150 1 1 0.0 7.727 7.271 5.081
151 1 2 0.0 17.046 7.773 4.279
152 1 1 0.0 16.893 7.098 4.94
153 1 1 0.0 16.371 7.62 3.618
154 1 2 0.0 15.3 7.774 2.125
155 1 1 0.0 15.727 7.095 1.602
156 1 1 0.0 14.364 7.616 2.003
157 1 2 0.0 12.126 10.794 3.631
158 1 1 0.0 12.636 10.716 2.825
159 1 1 0.0 12.639 11.384 4.184
160 1 2 0.0 15.609 10.776 3.581
161 1 1 0.0 15.181 11.455 4.104
162 1 1 0.0 16.545 10.934 3.703
163 1 2 0.0 13.908 9.04 4.982
164 1 1 0.0 14.665 9.505 4.626
165 1 1 0.0 13.152 9.506 4.626
166 1 2 0.0 18.783 7.699 2.075
167 1 1 0.0 18.27 8.291 1.523
168 1 1 0.0 18.273 7.621 2.881
169 1 2 0.0 17.029 9.515 0.778
170 1 1 0.0 17.108 9.003 -0.027
171 1 1 0.0 16.438 9.002 1.331
172 1 2 0.0 13.862 10.869 1.426
173 1 1 0.0 14.537 10.716 2.088
174 1 1 0.0 14.015 10.192 0.766
175 1 2 0.0 16.954 12.215 0.728
176 1 1 0.0 17.634 12.641 1.25
177 1 1 0.0 17.111 11.279 0.849
178 1 2 0.0 13.908 6.335 4.884
179 1 1 0.0 13.908 5.909 5.741
180 1 1 0.0 13.908 7.271 5.081
181 1 2 0.0 4.684 13.954 4.279
182 1 1 0.0 4.531 13.279 4.94
183 1 1 0.0 4.009 13.801 3.618
184 1 2 0.0 2.938 13.955 2.125
185 1 1 0.0 3.365 13.276 1.602
186 1 1 0.0 2.001 13.797 2.003
187 1 2 0.0 -0.236 16.975 3.631
188 1 1 0.0 0.274 16.897 2.825
189 1 1 0.0 0.277 17.565 4.184
190 1 2 0.0 3.246 16.957 3.581
191 1 1 0.0 2.819 17.636 4.104
192 1 1 0.0 4.183 17.115 3.703
193 1 2 0.0 1.546 15.222 4.982
194 1 1 0.0 2.303 15.686 4.626
195 1 1 0.0 0.789 15.687 4.626
196 1 2 0.0 6.42 13.88 2.075
197 1 1 0.0 5.908 14.472 1.523
198 1 1 0.0 5.91 13.802 2.881
199 1 2 0.0 4.667 15.696 0.778
200 1 1 0.0 4.746 15.184 -0.027
201 1 1 0.0 4.076 15.183 1.331
202 1 2 0.0 1.5 17.05 1.426
203 1 1 0.0 2.175 16.897 2.088
204 1 1 0.0 1.653 16.373 0.766
205 1 2 0.0 4.592 18.396 0.728
206 1 1 0.0 5.272 18.822 1.25
207 1 1 0.0 4.749 17.46 0.849
208 1 2 0.0 1.546 12.516 4.884
209 1 1 0.0 1.546 12.09 5.741
210 1 1 0.0 1.546 13.453 5.081
211 1 2 0.0 10.865 13.954 4.279
212 1 1 0.0 10.712 13.279 4.94
213 1 1 0.0 10.19 13.801 3.618
214 1 2 0.0 9.119 13.955 2.125
215 1 1 0.0 9.546 13.276 1.602
216 1 1 0.0 8.183 13.797 2.003
217 1 2 0.0 5.945 16.975 3.631
218 1 1 0.0 6.455 16.897 2.825
219 1 1 0.0 6.458 17.565 4.184
220 1 2 0.0 9.427 16.957 3.581
221 1 1 0.0 9.0 17.636 4.104
222 1 1 0.0 10.364 17.115 3.703
223 1 2 0.0 7.727 15.222 4.982
224 1 1 0.0 8.484 15.686 4.626
225 1 1 0.0 6.97 15.687 4.626
226 1 2 0.0 12.601 13.88 2.075
227 1 1 0.0 12.089 14.472 1.523
228 1 1 0.0 12.091 13.802 2.881
229 1 2 0.0 10.848 15.696 0.778
230 1 1 0.0 10.927 15.184 -0.027
231 1 1 0.0 10.257 15.183 1.331
232 1 2 0.0 7.681 17.05 1.426
233 1 1 0.0 8.356 16.897 2.088
234 1 1 0.0 7.834 16.373 0.766
235 1 2 0.0 10.773 18.396 0.728
236 1 1 0.0 11.453 18.822 1.25
237 1 1 0.0 10.93 17.46 0.849
238 1 2 0.0 7.727 12.516 4.884
239 1 1 0.0 7.727 12.09 5.741
240 1 1 0.0 7.727 13.453 5.081
241 1 2 0.0 17.046 13.954 4.279
242 1 1 0.0 16.893 13.279 4.94
243 1 1 0.0 16.371 13.801 3.618
244 1 2 0.0 15.3 13.955 2.125
245 1 1 0.0 15.727 13.276 1.602
246 1 1 0.0 14.364 13.797 2.003
247 1 2 0.0 12.126 16.975 3.631
248 1 1 0.0 12.636 16.897 2.825
249 1 1 0.0 12.639 17.565 4.184
250 1 2 0.0 15.609 16.957 3.581
251 1 1 0.0 15.181 17.636 4.104
252 1 1 0.0 16.545 17.115 3.703
253 1 2 0.0 13.908 15.222 4.982
254 1 1 0.0 14.665 15.686 4.626
255 1 1 0.0 13.152 15.687 4.626
256 1 2 0.0 18.783 13.88 2.075
257 1 1 0.0 18.27 14.472 1.523
258 1 1 0.0 18.273 13.802 2.881
259 1 2 0.0 17.029 15.696 0.778
260 1 1 0.0 17.108 15.184 -0.027
261 1 1 0.0 16.438 15.183 1.331
262 1 2 0.0 13.862 17.05 1.426
263 1 1 0.0 14.537 16.897 2.088
264 1 1 0.0 14.015 16.373 0.766
265 1 2 0.0 16.954 18.396 0.728
266 1 1 0.0 17.634 18.822 1.25
267 1 1 0.0 17.111 17.46 0.849
268 1 2 0.0 13.908 12.516 4.884
269 1 1 0.0 13.908 12.09 5.741
270 1 1 0.0 13.908 13.453 5.081
271 1 2 0.0 4.684 1.592 9.977
272 1 1 0.0 4.531 0.917 10.638
273 1 1 0.0 4.009 1.439 9.316
274 1 2 0.0 2.938 1.593 7.823
275 1 1 0.0 3.365 0.914 7.3
276 1 1 0.0 2.001 1.435 7.702
277 1 2 0.0 -0.236 4.613 9.329
278 1 1 0.0 0.274 4.535 8.523
279 1 1 0.0 0.277 5.203 9.882
280 1 2 0.0 3.246 4.595 9.279
281 1 1 0.0 2.819 5.274 9.802
282 1 1 0.0 4.183 4.753 9.401
283 1 2 0.0 1.546 2.859 10.68
284 1 1 0.0 2.303 3.324 10.324
285 1 1 0.0 0.789 3.325 10.324
286 1 2 0.0 6.42 1.518 7.773
287 1 1 0.0 5.908 2.11 7.221
288 1 1 0.0 5.91 1.44 8.579
289 1 2 0.0 4.667 3.333 6.476
290 1 1 0.0 4.746 2.822 5.671
291 1 1 0.0 4.076 2.821 7.029
292 1 2 0.0 1.5 4.688 7.124
293 1 1 0.0 2.175 4.534 7.786
294 1 1 0.0 1.653 4.011 6.464
295 1 2 0.0 4.592 6.034 6.426
296 1 1 0.0 5.272 6.46 6.948
297 1 1 0.0 4.749 5.098 6.547
298 1 2 0.0 1.546 0.154 10.582
299 1 1 0.0 1.546 -0.272 11.439
300 1 1 0.0 1.546 1.09 10.779
301 1 2 0.0 10.865 1.592 9.977
302 1 1 0.0 10.712 0.917 10.638
303 1 1 0.0 10.19 1.439 9.316
304 1 2 0.0 9.119 1.593 7.823
305 1 1 0.0 9.546 0.914 7.3
306 1 1 0.0 8.183 1.435 7.702
307 1 2 0.0 5.945 4.613 9.329
308 1 1 0.0 6.455 4.535 8.523
309 1 1 0.0 6.458 5.203 9.882
310 1 2 0.0 9.427 4.595 9.279
311 1 1 0.0 9.0 5.274 9.802
312 1 1 0.0 10.364 4.753 9.401
313 1 2 0.0 7.727 2.859 10.68
314 1 1 0.0 8.484 3.324 10.324
315 1 1 0.0 6.97 3.325 10.324
316 1 2 0.0 12.601 1.518 7.773
317 1 1 0.0 12.089 2.11 7.221
318 1 1 0.0 12.091 1.44 8.579
319 1 2 0.0 10.848 3.333 6.476
320 1 1 0.0 10.927 2.822 5.671
321 1 1 0.0 10.257 2.821 7.029
322 1 2 0.0 7.681 4.688 7.124
323 1 1 0.0 8.356 4.534 7.786
324 1 1 0.0 7.834 4.011 6.464
325 1 2 0.0 10.773 6.034 6.426
326 1 1 0.0 11.453 6.46 6.948
327 1 1 0.0 10.93 5.098 6.547
328 1 2 0.0 7.727 0.154 10.582
329 1 1 0.0 7.727 -0.272 11.439
330 1 1 0.0 7.727 1.09 10.779
331 1 2 0.0 17.046 1.592 9.977
332 1 1 0.0 16.893 0.917 10.638
333 1 1 0.0 16.371 1.439 9.316
334 1 2 0.0 15.3 1.593 7.823
335 1 1 0.0 15.727 0.914 7.3
336 1 1 0.0 14.364 1.435 7.702
337 1 2 0.0 12.126 4.613 9.329
338 1 1 0.0 12.636 4.535 8.523
339 1 1 0.0 12.639 5.203 9.882
340 1 2 0.0 15.609 4.595 9.279
341 1 1 0.0 15.181 5.274 9.802
342 1 1 0.0 16.545 4.753 9.401
343 1 2 0.0 13.908 2.859 10.68
344 1 1 0.0 14.665 3.324 10.324
345 1 1 0.0 13.152 3.325 10.324
346 1 2 0.0 18.783 1.518 7.773
347 1 1 0.0 18.27 2.11 7.221
348 1 1 0.0 18.273 1.44 8.579
349 1 2 0.0 17.029 3.333 6.476
350 1 1 0.0 17.108 2.822 5.671
351 1 1 0.0 16.438 2.821 7.029
352 1 2 0.0 13.862 4.688 7.124
353 1 1 0.0 14.537 4.534 7.786
354 1 1 0.0 14.015 4.011 6.464
355 1 2 0.0 16.954 6.034 6.426
356 1 1 0.0 17.634 6.46 6.948
357 1 1 0.0 17.111 5.098 6.547
358 1 2 0.0 13.908 0.154 10.582
359 1 1 0.0 13.908 -0.272 11.439
360 1 1 0.0 13.908 1.09 10.779
361 1 2 0.0 4.684 7.773 9.977
362 1 1 0.0 4.531 7.098 10.638
363 1 1 0.0 4.009 7.62 9.316
364 1 2 0.0 2.938 7.774 7.823
365 1 1 0.0 3.365 7.095 7.3
366 1 1 0.0 2.001 7.616 7.702
367 1 2 0.0 -0.236 10.794 9.329
368 1 1 0.0 0.274 10.716 8.523
369 1 1 0.0 0.277 11.384 9.882
370 1 2 0.0 3.246 10.776 9.279
371 1 1 0.0 2.819 11.455 9.802
372 1 1 0.0 4.183 10.934 9.401
373 1 2 0.0 1.546 9.04 10.68
374 1 1 0.0 2.303 9.505 10.324
375 1 1 0.0 0.789 9.506 10.324
376 1 2 0.0 6.42 7.699 7.773
377 1 1 0.0 5.908 8.291 7.221
378 1 1 0.0 5.91 7.621 8.579
379 1 2 0.0 4.667 9.515 6.476
380 1 1 0.0 4.746 9.003 5.671
381 1 1 0.0 4.076 9.002 7.029
382 1 2 0.0 1.5 10.869 7.124
383 1 1 0.0 2.175 10.716 7.786
384 1 1 0.0 1.653 10.192 6.464
385 1 2 0.0 4.592 12.215 6.426
386 1 1 0.0 5.272 12.641 6.948
387 1 1 0.0 4.749 11.279 6.547
388 1 2 0.0 1.546 6.335 10.582
389 1 1 0.0 1.546 5.909 11.439
390 1 1 0.0 1.546 7.271 10.779
391 1 2 0.0 10.865 7.773 9.977
392 1 1 0.0 10.712 7.098 10.638
393 1 1 0.0 10.19 7.62 9.316
394 1 2 0.0 9.119 7.774 7.823
395 1 1 0.0 9.546 7.095 7.3
396 1 1 0.0 8.183 7.616 7.702
397 1 2 0.0 5.945 10.794 9.329
398 1 1 0.0 6.455 10.716 8.523
399 1 1 0.0 6.458 11.384 9.882
400 1 2 0.0 9.427 10.776 9.279
401 1 1 0.0 9.0 11.455 9.802
402 1 1 0.0 10.364 10.934 9.401
403 1 2 0.0 7.727 9.04 10.68
404 1 1 0.0 8.484 9.505 10.324
405 1 1 0.0 6.97 9.506 10.324
406 1 2 0.0 12.601 7.699 7.773
407 1 1 0.0 12.089 8.291 7.221
408 1 1 0.0 12.091 7.621 8.579
409 1 2 0.0 10.848 9.515 6.476
410 1 1 0.0 10.927 9.003 5.671
411 1 1 0.0 10.257 9.002 7.029
412 1 2 0.0 7.681 10.869 7.124
413 1 1 0.0 8.356 10.716 7.786
414 1 1 0.0 7.834 10.192 6.464
415 1 2 0.0 10.773 12.215 6.426
416 1 1 0.0 11.453 12.641 6.948
417 1 1 0.0 10.93 11.279 6.547
418 1 2 0.0 7.727 6.335 10.582
419 1 1 0.0 7.727 5.909 11.439
420 1 1 0.0 7.727 7.271 10.779
421 1 2 0.0 17.046 7.773 9.977
422 1 1 0.0 16.893 7.098 10.638
423 1 1 0.0 16.371 7.62 9.316
424 1 2 0.0 15.3 7.774 7.823
425 1 1 0.0 15.727 7.095 7.3
426 1 1 0.0 14.364 7.616 7.702
427 1 2 0.0 12.126 10.794 9.329
428 1 1 0.0 12.636 10.716 8.523
429 1 1 0.0 12.639 11.384 9.882
430 1 2 0.0 15.609 10.776 9.279
431 1 1 0.0 15.181 11.455 9.802
432 1 1 0.0 16.545 10.934 9.401
433 1 2 0.0 13.908 9.04 10.68
434 1 1 0.0 14.665 9.505 10.324
435 1 1 0.0 13.152 9.506 10.324
436 1 2 0.0 18.783 7.699 7.773
437 1 1 0.0 18.27 8.291 7.221
438 1 1 0.0 18.273 7.621 8.579
439 1 2 0.0 17.029 9.515 6.476
440 1 1 0.0 17.108 9.003 5.671
441 1 1 0.0 16.438 9.002 7.029
442 1 2 0.0 13.862 10.869 7.124
443 1 1 0.0 14.537 10.716 7.786
444 1 1 0.0 14.015 10.192 6.464
445 1 2 0.0 16.954 12.215 6.426
446 1 1 0.0 17.634 12.641 6.948
447 1 1 0.0 17.111 11.279 6.547
448 1 2 0.0 13.908 6.335 10.582
449 1 1 0.0 13.908 5.909 11.439
450 1 1 0.0 13.908 7.271 10.779
451 1 2 0.0 4.684 13.954 9.977
452 1 1 0.0 4.531 13.279 10.638
453 1 1 0.0 4.009 13.801 9.316
454 1 2 0.0 2.938 13.955 7.823
455 1 1 0.0 3.365 13.276 7.3
456 1 1 0.0 2.001 13.797 7.702
457 1 2 0.0 -0.236 16.975 9.329
458 1 1 0.0 0.274 16.897 8.523
459 1 1 0.0 0.277 17.565 9.882
460 1 2 0.0 3.246 16.957 9.279
461 1 1 0.0 2.819 17.636 9.802
462 1 1 0.0 4.183 17.115 9.401
463 1 2 0.0 1.546 15.222 10.68
464 1 1 0.0 2.303 15.686 10.324
465 1 1 0.0 0.789 15.687 10.324
466 1 2 0.0 6.42 13.88 7.773
467 1 1 0.0 5.908 14.472 7.221
468 1 1 0.0 5.91 13.802 8.579
469 1 2 0.0 4.667 15.696 6.476
470 1 1 0.0 4.746 15.184 5.671
471 1 1 0.0 4.076 15.183 7.029
472 1 2 0.0 1.5 17.05 7.124
473 1 1 0.0 2.175 16.897 7.786
474 1 1 0.0 1.653 16.373 6.464
475 1 2 0.0 4.592 18.396 6.426
476 1 1 0.0 5.272 18.822 6.948
477 1 1 0.0 4.749 17.46 6.547
478 1 2 0.0 1.546 12.516 10.582
479 1 1 0.0 1.546 12.09 11.439
480 1 1 0.0 1.546 13.453 10.779
481 1 2 0.0 10.865 13.954 9.977
482 1 1 0.0 10.712 13.279 10.638
483 1 1 0.0 10.19 13.801 9.316
484 1 2 0.0 9.119 13.955 7.823
485 1 1 0.0 9.546 13.276 7.3
486 1 1 0.0 8.183 13.797 7.702
487 1 2 0.0 5.945 16.975 9.329
488 1 1 0.0 6.455 16.897 8.523
489 1 1 0.0 6.458 17.565 9.882
490 1 2 0.0 9.427 16.957 9.279
491 1 1 0.0 9.0 17.636 9.802
492 1 1 0.0 10.364 17.115 9.401
493 1 2 0.0 7.727 15.222 10.68
494 1 1 0.0 8.484 15.686 10.324
495 1 1 0.0 6.97 15.687 10.324
496 1 2 0.0 12.601 13.88 7.773
497 1 1 0.0 12.089 14.472 7.221
498 1 1 0.0 12.091 13.802 8.579
499 1 2 0.0 10.848 15.696 6.476
500 1 1 0.0 10.927 15.184 5.671
501 1 1 0.0 10.257 15.183 7.029
502 1 2 0.0 7.681 17.05 7.124
503 1 1 0.0 8.356 16.897 7.786
504 1 1 0.0 7.834 16.373 6.464
505 1 2 0.0 10.773 18.396 6.426
506 1 1 0.0 11.453 18.822 6.948
507 1 1 0.0 10.93 17.46 6.547
508 1 2 0.0 7.727 12.516 10.582
509 1 1 0.0 7.727 12.09 11.439
510 1 1 0.0 7.727 13.453 10.779
511 1 2 0.0 17.046 13.954 9.977
512 1 1 0.0 16.893 13.279 10.638
513 1 1 0.0 16.371 13.801 9.316
514 1 2 0.0 15.3 13.955 7.823
515 1 1 0.0 15.727 13.276 7.3
516 1 1 0.0 14.364 13.797 7.702
517 1 2 0.0 12.126 16.975 9.329
518 1 1 0.0 12.636 16.897 8.523
519 1 1 0.0 12.639 17.565 9.882
520 1 2 0.0 15.609 16.957 9.279
521 1 1 0.0 15.181 17.636 9.802
522 1 1 0.0 16.545 17.115 9.401
523 1 2 0.0 13.908 15.222 10.68
524 1 1 0.0 14.665 15.686 10.324
525 1 1 0.0 13.152 15.687 10.324
526 1 2 0.0 18.783 13.88 7.773
527 1 1 0.0 18.27 14.472 7.221
528 1 1 0.0 18.273 13.802 8.579
529 1 2 0.0 17.029 15.696 6.476
530 1 1 0.0 17.108 15.184 5.671
531 1 1 0.0 16.438 15.183 7.029
532 1 2 0.0 13.862 17.05 7.124
533 1 1 0.0 14.537 16.897 7.786
534 1 1 0.0 14.015 16.373 6.464
535 1 2 0.0 16.954 18.396 6.426
536 1 1 0.0 17.634 18.822 6.948
537 1 1 0.0 17.111 17.46 6.547
538 1 2 0.0 13.908 12.516 10.582
539 1 1 0.0 13.908 12.09 11.439
540 1 1 0.0 13.908 13.453 10.779
541 1 2 0.0 4.684 1.592 15.675
542 1 1 0.0 4.531 0.917 16.336
543 1 1 0.0 4.009 1.439 15.014
544 1 2 0.0 2.938 1.593 13.521
545 1 1 0.0 3.365 0.914 12.998
546 1 1 0.0 2.001 1.435 13.4
547 1 2 0.0 -0.236 4.613 15.028
548 1 1 0.0 0.274 4.535 14.221
549 1 1 0.0 0.277 5.203 15.58
550 1 2 0.0 3.246 4.595 14.977
551 1 1 0.0 2.819 5.274 15.5
552 1 1 0.0 4.183 4.753 15.099
553 1 2 0.0 1.546 2.859 16.378
554 1 1 0.0 2.303 3.324 16.022
555 1 1 0.0 0.789 3.325 16.022
556 1 2 0.0 6.42 1.518 13.471
557 1 1 0.0 5.908 2.11 12.919
558 1 1 0.0 5.91 1.44 14.277
559 1 2 0.0 4.667 3.333 12.175
560 1 1 0.0 4.746 2.822 11.369
561 1 1 0.0 4.076 2.821 12.727
562 1 2 0.0 1.5 4.688 12.822
563 1 1 0.0 2.175 4.534 13.484
564 1 1 0.0 1.653 4.011 12.163
565 1 2 0.0 4.592 6.034 12.124
566 1 1 0.0 5.272 6.46 12.646
567 1 1 0.0 4.749 5.098 12.245
568 1 2 0.0 1.546 0.154 16.28
569 1 1 0.0 1.546 -0.272 17.138
570 1 1 0.0 1.546 1.09 16.477
571 1 2 0.0 10.865 1.592 15.675
572 1 1 0.0 10.712 0.917 16.336
573 1 1 0.0 10.19 1.439 15.014
574 1 2 0.0 9.119 1.593 13.521
575 1 1 0.0 9.546 0.914 12.998
576 1 1 0.0 8.183 1.435 13.4
577 1 2 0.0 5.945 4.613 15.028
578 1 1 0.0 6.455 4.535 14.221
579 1 1 0.0 6.458 5.203 15.58
580 1 2 0.0 9.427 4.595 14.977
581 1 1 0.0 9.0 5.274 15.5
582 1 1 0.0 10.364 4.753 15.099
583 1 2 0.0 7.727 2.859 16.378
584 1 1 0.0 8.484 3.324 16.022
585 1 1 0.0 6.97 3.325 16.022
586 1 2 0.0 12.601 1.518 13.471
587 1 1 0.0 12.089 2.11 12.919
588 1 1 0.0 12.091 1.44 14.277
589 1 2 0.0 10.848 3.333 12.175
590 1 1 0.0 10.927 2.822 11.369
591 1 1 0.0 10.257 2.821 12.727
592 1 2 0.0 7.681 4.688 12.822
593 1 1 0.0 8.356 4.534 13.484
594 1 1 0.0 7.834 4.011 12.163
595 1 2 0.0 10.773 6.034 12.124
596 1 1 0.0 11.453 6.46 12.646
597 1 1 0.0 10.93 5.098 12.245
598 1 2 0.0 7.727 0.154 16.28
599 1 1 0.0 7.727 -0.272 17.138
600 1 1 0.0 7.727 1.09 16.477
601 1 2 0.0 17.046 1.592 15.675
602 1 1 0.0 16.893 0.917 16.336
603 1 1 0.0 16.371 1.439 15.014
604 1 2 0.0 15.3 1.593 13.521
605 1 1 0.0 15.727 0.914 12.998
606 1 1 0.0 14.364 1.435 13.4
607 1 2 0.0 12.126 4.613 15.028
608 1 1 0.0 12.636 4.535 14.221
609 1 1 0.0 12.639 5.203 15.58
610 1 2 0.0 15.609 4.595 14.977
611 1 1 0.0 15.181 5.274 15.5
612 1 1 0.0 16.545 4.753 15.099
613 1 2 0.0 13.908 2.859 16.378
614 1 1 0.0 14.665 3.324 16.022
615 1 1 0.0 13.152 3.325 16.022
616 1 2 0.0 18.783 1.518 13.471
617 1 1 0.0 18.27 2.11 12.919
618 1 1 0.0 18.273 1.44 14.277
619 1 2 0.0 17.029 3.333 12.175
620 1 1 0.0 17.108 2.822 11.369
621 1 1 0.0 16.438 2.821 12.727
622 1 2 0.0 13.862 4.688 12.822
623 1 1 0.0 14.537 4.534 13.484
624 1 1 0.0 14.015 4.011 12.163
625 1 2 0.0 16.954 6.034 12.124
626 1 1 0.0 17.634 6.46 12.646
627 1 1 0.0 17.111 5.098 12.245
628 1 2 0.0 13.908 0.154 16.28
629 1 1 0.0 13.908 -0.272 17.138
630 1 1 0.0 13.908 1.09 16.477
631 1 2 0.0 4.684 7.773 15.675
632 1 1 0.0 4.531 7.098 16.336
633 1 1 0.0 4.009 7.62 15.014
634 1 2 0.0 2.938 7.774 13.521
635 1 1 0.0 3.365 7.095 12.998
636 1 1 0.0 2.001 7.616 13.4
637 1 2 0.0 -0.236 10.794 15.028
638 1 1 0.0 0.274 10.716 14.221
639 1 1 0.0 0.277 11.384 15.58
640 1 2 0.0 3.246 10.776 14.977
641 1 1 0.0 2.819 11.455 15.5
642 1 1 0.0 4.183 10.934 15.099
643 1 2 0.0 1.546 9.04 16.378
644 1 1 0.0 2.303 9.505 16.022
645 1 1 0.0 0.789 9.506 16.022
646 1 2 0.0 6.42 7.699 13.471
647 1 1 0.0 5.908 8.291 12.919
648 1 1 0.0 5.91 7.621 14.277
649 1 2 0.0 4.667 9.515 12.175
650 1 1 0.0 4.746 9.003 11.369
651 1 1 0.0 4.076 9.002 12.727
652 1 2 0.0 1.5 10.869 12.822
653 1 1 0.0 2.175 10.716 13.484
654 1 1 0.0 1.653 10.192 12.163
655 1 2 0.0 4.592 12.215 12.124
656 1 1 0.0 5.272 12.641 12.646
657 1 1 0.0 4.749 11.279 12.245
658 1 2 0.0 1.546 6.335 16.28
659 1 1 0.0 1.546 5.909 17.138
660 1 1 0.0 1.546 7.271 16.477
661 1 2 0.0 10.865 7.773 15.675
662 1 1 0.0 10.712 7.098 16.336
663 1 1 0.0 10.19 7.62 15.014
664 1 2 0.0 9.119 7.774 13.521
665 1 1 0.0 9.546 7.095 12.998
666 1 1 0.0 8.183 7.616 13.4
667 1 2 0.0 5.945 10.794 15.028
668 1 1 0.0 6.455 10.716 14.221
669 1 1 0.0 6.458 11.384 15.58
670 1 2 0.0 9.427 10.776 14.977
671 1 1 0.0 9.0 11.455 15.5
672 1 1 0.0 10.364 10.934 15.099
673 1 2 0.0 7.727 9.04 16.378
674 1 1 0.0 8.484 9.505 16.022
675 1 1 0.0 6.97 9.506 16.022
676 1 2 0.0 12.601 7.699 13.471
677 1 1 0.0 12.089 8.291 12.919
678 1 1 0.0 12.091 7.621 14.277
679 1 2 0.0 10.848 9.515 12.175
680 1 1 0.0 10.927 9.003 11.369
681 1 1 0.0 10.257 9.002 12.727
682 1 2 0.0 7.681 10.869 12.822
683 1 1 0.0 8.356 10.716 13.484
684 1 1 0.0 7.834 10.192 12.163
685 1 2 0.0 10.773 12.215 12.124
686 1 1 0.0 11.453 12.641 12.646
687 1 1 0.0 10.93 11.279 12.245
688 1 2 0.0 7.727 6.335 16.28
689 1 1 0.0 7.727 5.909 17.138
690 1 1 0.0 7.727 7.271 16.477
691 1 2 0.0 17.046 7.773 15.675
692 1 1 0.0 16.893 7.098 16.336
693 1 1 0.0 16.371 7.62 15.014
694 1 2 0.0 15.3 7.774 13.521
695 1 1 0.0 15.727 7.095 12.998
696 1 1 0.0 14.364 7.616 13.4
697 1 2 0.0 12.126 10.794 15.028
698 1 1 0.0 12.636 10.716 14.221
699 1 1 0.0 12.639 11.384 15.58
700 1 2 0.0 15.609 10.776 14.977
701 1 1 0.0 15.181 11.455 15.5
702 1 1 0.0 16.545 10.934 15.099
703 1 2 0.0 13.908 9.04 16.378
704 1 1 0.0 14.665 9.505 16.022
705 1 1 0.0 13.152 9.506 16.022
706 1 2 0.0 18.783 7.699 13.471
707 1 1 0.0 18.27 8.291 12.919
708 1 1 0.0 18.273 7.621 14.277
709 1 2 0.0 17.029 9.515 12.175
710 1 1 0.0 17.108 9.003 11.369
711 1 1 0.0 16.438 9.002 12.727
712 1 2 0.0 13.862 10.869 12.822
713 1 1 0.0 14.537 10.716 13.484
714 1 1 0.0 14.015 10.192 12.163
715 1 2 0.0 16.954 12.215 12.124
716 1 1 0.0 17.634 12.641 12.646
717 1 1 0.0 17.111 11.279 12.245
718 1 2 0.0 13.908 6.335 16.28
719 1 1 0.0 13.908 5.909 17.138
720 1 1 0.0 13.908 7.271 16.477
721 1 2 0.0 4.684 13.954 15.675
722 1 1 0.0 4.531 13.279 16.336
723 1 1 0.0 4.009 13.801 15.014
724 1 2 0.0 2.938 13.955 13.521
725 1 1 0.0 3.365 13.276 12.998
726 1 1 0.0 2.001 13.797 13.4
727 1 2 0.0 -0.236 16.975 15.028
728 1 1 0.0 0.274 16.897 14.221
729 1 1 0.0 0.277 17.565 15.58
730 1 2 0.0 3.246 16.957 14.977
731 1 1 0.0 2.819 17.636 15.5
732 1 1 0.0 4.183 17.115 15.099
733 1 2 0.0 1.546 15.222 16.378
734 1 1 0.0 2.303 15.686 16.022
735 1 1 0.0 0.789 15.687 16.022
736 1 2 0.0 6.42 13.88 13.471
737 1 1 0.0 5.908 14.472 12.919
738 1 1 0.0 5.91 13.802 14.277
739 1 2 0.0 4.667 15.696 12.175
740 1 1 0.0 4.746 15.184 11.369
741 1 1 0.0 4.076 15.183 12.727
742 1 2 0.0 1.5 17.05 12.822
743 1 1 0.0 2.175 16.897 13.484
744 1 1 0.0 1.653 16.373 12.163
745 1 2 0.0 4.592 18.396 12.124
746 1 1 0.0 5.272 18.822 12.646
747 1 1 0.0 4.749 17.46 12.245
748 1 2 0.0 1.546 12.516 16.28
749 1 1 0.0 1.546 12.09 17.138
750 1 1 0.0 1.546 13.453 16.477
751 1 2 0.0 10.865 13.954 15.675
752 1 1 0.0 10.712 13.279 16.336
753 1 1 0.0 10.19 13.801 15.014
754 1 2 0.0 9.119 13.955 13.521
755 1 1 0.0 9.546 13.276 12.998
756 1 1 0.0 8.183 13.797 13.4
757 1 2 0.0 5.945 16.975 15.028
758 1 1 0.0 6.455 16.897 14.221
759 1 1 0.0 6.458 17.565 15.58
760 1 2 0.0 9.427 16.957 14.977
761 1 1 0.0 9.0 17.636 15.5
762 1 1 0.0 10.364 17.115 15.099
763 1 2 0.0 7.727 15.222 16.378
764 1 1 0.0 8.484 15.686 16.022
765 1 1 0.0 6.97 15.687 16.022
766 1 2 0.0 12.601 13.88 13.471
767 1 1 0.0 12.089 14.472 12.919
768 1 1 0.0 12.091 13.802 14.277
769 1 2 0.0 10.848 15.696 12.175
770 1 1 0.0 10.927 15.184 11.369
771 1 1 0.0 10.257 15.183 12.727
772 1 2 0.0 7.681 17.05 12.822
773 1 1 0.0 8.356 16.897 13.484
774 1 1 0.0 7.834 16.373 12.163
775 1 2 0.0 10.773 18.396 12.124
776 1 1 0.0 11.453 18.822 12.646
777 1 1 0.0 10.93 17.46 12.245
778 1 2 0.0 7.727 12.516 16.28
779 1 1 0.0 7.727 12.09 17.138
780 1 1 0.0 7.727 13.453 16.477
781 1 2 0.0 17.046 13.954 15.675
782 1 1 0.0 16.893 13.279 16.336
783 1 1 0.0 16.371 13.801 15.014
784 1 2 0.0 15.3 13.955 13.521
785 1 1 0.0 15.727 13.276 12.998
786 1 1 0.0 14.364 13.797 13.4
787 1 2 0.0 12.126 16.975 15.028
788 1 1 0.0 12.636 16.897 14.221
789 1 1 0.0 12.639 17.565 15.58
790 1 2 0.0 15.609 16.957 14.977
791 1 1 0.0 15.181 17.636 15.5
792 1 1 0.0 16.545 17.115 15.099
793 1 2 0.0 13.908 15.222 16.378
794 1 1 0.0 14.665 15.686 16.022
795 1 1 0.0 13.152 15.687 16.022
796 1 2 0.0 18.783 13.88 13.471
797 1 1 0.0 18.27 14.472 12.919
798 1 1 0.0 18.273 13.802 14.277
799 1 2 0.0 17.029 15.696 12.175
800 1 1 0.0 17.108 15.184 11.369
801 1 1 0.0 16.438 15.183 12.727
802 1 2 0.0 13.862 17.05 12.822
803 1 1 0.0 14.537 16.897 13.484
804 1 1 0.0 14.015 16.373 12.163
805 1 2 0.0 16.954 18.396 12.124
806 1 1 0.0 17.634 18.822 12.646
807 1 1 0.0 17.111 17.46 12.245
808 1 2 0.0 13.908 12.516 16.28
809 1 1 0.0 13.908 12.09 17.138
810 1 1 0.0 13.908 13.453 16.477

Bonds

1 1 1 2
2 1 1 3
3 1 4 6
4 1 4 5
5 1 7 8
6 1 7 9
7 1 10 11
8 1 10 12
9 1 13 15
10 1 13 14
11 1 16 18
12 1 16 17
13 1 19 21
14 1 19 20
15 1 22 24
16 1 22 23
17 1 25 26
18 1 25 27
19 1 28 30
20 1 28 29
21 1 31 32
22 1 31 33
23 1 34 36
24 1 34 35
25 1 37 38
26 1 37 39
27 1 40 42
28 1 40 41
29 1 43 44
30 1 43 45
31 1 46 48
32 1 46 47
33 1 49 51
34 1 49 50
35 1 52 54
36 1 52 53
37 1 55 57
38 1 55 56
39 1 58 60
40 1 58 59
41 1 61 62
42 1 61 63
43 1 64 66
44 1 64 65
45 1 67 68
46 1 67 69
47 1 70 72
48 1 70 71
49 1 73 75
50 1 73 74
51 1 76 78
52 1 76 77
53 1 79 80
54 1 79 81
55 1 82 84
56 1 82 83
57 1 85 86
58 1 85 87
59 1 88 90
60 1 88 89
61 1 91 92
62 1 91 93
63 1 94 96
64 1 94 95
65 1 97 98
66 1 97 99
67 1 100 101
68 1 100 102
69 1 103 105
70 1 103 104
71 1 106 108
72 1 106 107
73 1 109 111
74 1 109 110
75 1 112 114
76 1 112 113
77 1 115 117
78 1 115 116
79 1 118 120
80 1 118 119
81 1 121 122
82 1 121 123
83 1 124 126
84 1 124 125
85 1 127 128
86 1 127 129
87 1 130 132
88 1 130 131
89 1 133 135
90 1 133 134
91 1 136 138
92 1 136 137
93 1 139 141
94 1 139 140
95 1 142 144
96 1 142 143
97 1 145 147
98 1 145 146
99 1 148 150
100 1 148 149
101 1 151 153
102 1 151 152
103 1 154 156
104 1 154 155
105 1 157 158
106 1 157 159
107 1 160 162
108 1 160 161
109 1 163 165
110 1 163 164
111 1 166 168
112 1 166 167
113 1 169 171
114 1 169 170
115 1 172 174
116 1 172 173
117 1 175 177
118 1 175 176
119 1 178 180
120 1 178 179
121 1 181 182
122 1 181 183
123 1 184 186
124 1 184 185
125 1 187 188
126 1 187 189
127 1 190 191
128 1 190 192
129 1 193 195
130 1 193 194
131 1 196 198
132 1 196 197
133 1 199 201
134 1 199 200
135 1 202 204
136 1 202 203
137 1 205 207
138 1 205 206
139 1 208 209
140 1 208 210
141 1 211 212
142 1 211 213
143 1 214 216
144 1 214 215
145 1 217 218
146 1 217 219
147 1 220 222
148 1 220 221
149 1 223 224
150 1 223 225
151 1 226 228
152 1 226 227
153 1 229 231
154 1 229 230
155 1 232 234
156 1 232 233
157 1 235 237
158 1 235 236
159 1 238 239
160 1 238 240
161 1 241 242
162 1 241 243
163 1 244 246
164 1 244 245
165 1 247 248
166 1 247 249
167 1 250 252
168 1 250 251
169 1 253 255
170 1 253 254
171 1 256 258
172 1 256 257
173 1 259 260
174 1 259 261
175 1 262 264
176 1 262 263
177 1 265 267
178 1 265 266
179 1 268 269
180 1 268 270
181 1 271 272
182 1 271 273
183 1 274 276
184 1 274 275
185 1 277 278
186 1 277 279
187 1 280 281
188 1 280 282
189 1 283 285
190 1 283 284
191 1 286 288
192 1 286 287
193 1 289 291
194 1 289 290
195 1 292 294
196 1 292 293
197 1 295 296
198 1 295 297
199 1 298 300
200 1 298 299
201 1 301 302
202 1 301 303
203 1 304 306
204 1 304 305
205 1 307 308
206 1 307 309
207 1 310 312
208 1 310 311
209 1 313 314
210 1 313 315
211 1 316 318
212 1 316 317
213 1 319 321
214 1 319 320
215 1 322 324
216 1 322 323
217 1 325 327
218 1 325 326
219 1 328 330
220 1 328 329
221 1 331 332
222 1 331 333
223 1 334 336
224 1 334 335
225 1 337 338
226 1 337 339
227 1 340 342
228 1 340 341
229 1 343 345
230 1 343 344
231 1 346 348
232 1 346 347
233 1 349 351
234 1 349 350
235 1 352 354
236 1 352 353
237 1 355 356
238 1 355 357
239 1 358 360
240 1 358 359
241 1 361 362
242 1 361 363
243 1 364 366
244 1 364 365
245 1 367 368
246 1 367 369
247 1 370 371
248 1 370 372
249 1 373 375
250 1 373 374
251 1 376 378
252 1 376 377
253 1 379 380
254 1 379 381
255 1 382 384
256 1 382 383
257 1 385 387
258 1 385 386
259 1 388 390
260 1 388 389
261 1 391 392
262 1 391 393
263 1 394 396
264 1 394 395
265 1 397 398
266 1 397 399
267 1 400 402
268 1 400 401
269 1 403 405
270 1 403 404
271 1 406 408
272 1 406 407
273 1 409 410
274 1 409 411
275 1 412 414
276 1 412 413
277 1 415 417
278 1 415 416
279 1 418 420
280 1 418 419
281 1 421 423
282 1 421 422
283 1 424 426
284 1 424 425
285 1 427 428
286 1 427 429
287 1 430 432
288 1 430 431
289 1 433 435
290 1 433 434
291 1 436 438
292 1 436 437
293 1 439 441
294 1 439 440
295 1 442 444
296 1 442 443
297 1 445 447
298 1 445 446
299 1 448 450
300 1 448 449
301 1 451 452
302 1 451 453
303 1 454 456
304 1 454 455
305 1 457 458
306 1 457 459
307 1 460 461
308 1 460 462
309 1 463 465
310 1 463 464
311 1 466 468
312 1 466 467
313 1 469 471
314 1 469 470
315 1 472 474
316 1 472 473
317 1 475 477
318 1 475 476
319 1 478 479
320 1 478 480
321 1 481 482
322 1 481 483
323 1 484 486
324 1 484 485
325 1 487 488
326 1 487 489
327 1 490 492
328 1 490 491
329 1 493 494
330 1 493 495
331 1 496 498
332 1 496 497
333 1 499 501
334 1 499 500
335 1 502 504
336 1 502 503
337 1 505 507
338 1 505 506
339 1 508 509
340 1 508 510
341 1 511 512
342 1 511 513
343 1 514 516
344 1 514 515
345 1 517 518
346 1 517 519
347 1 520 522
348 1 520 521
349 1 523 525
350 1 523 524
351 1 526 528
352 1 526 527
353 1 529 531
354 1 529 530
355 1 532 534
356 1 532 533
357 1 535 537