# LAMMPS data file written by OVITO Basic 3.5.4
1062 atoms
708 bonds
2 atom types
1 bond types
-0.536 20.594 xlo xhi
-0.536 20.594 ylo yhi
-0.536 13.908 zlo zhi

Masses

1 1.00794  # H
2 15.9994  # O

Atoms  # full

1 1 2 0.0 -0.065 0.0 0.0
2 1 1 0.0 0.521 -0.536 -0.536
3 1 1 0.0 0.521 0.536 0.536
4 1 2 0.0 3.408 3.343 0.0
5 1 1 0.0 2.822 2.808 0.536
6 1 1 0.0 2.822 3.879 -0.536
7 1 2 0.0 3.278 0.0 3.343
8 1 1 0.0 3.864 -0.536 2.808
9 1 1 0.0 3.864 0.536 3.879
10 1 2 0.0 6.751 3.343 3.343
11 1 1 0.0 6.165 3.879 2.808
12 1 1 0.0 6.165 2.808 3.879
13 1 2 0.0 1.672 1.672 1.607
14 1 1 0.0 1.136 2.207 2.192
15 1 1 0.0 2.207 1.136 2.192
16 1 2 0.0 5.015 5.015 1.736
17 1 1 0.0 5.55 5.55 1.151
18 1 1 0.0 4.479 4.479 1.151
19 1 2 0.0 5.015 1.672 4.95
20 1 1 0.0 4.479 2.207 5.535
21 1 1 0.0 5.55 1.136 5.535
22 1 2 0.0 1.672 5.015 5.079
23 1 1 0.0 1.136 4.479 4.494
24 1 1 0.0 2.207 5.55 4.494
25 1 2 0.0 3.343 -0.065 0.0
26 1 1 0.0 3.879 0.521 0.536
27 1 1 0.0 2.808 0.521 -0.536
28 1 2 0.0 0.0 3.408 0.0
29 1 1 0.0 0.536 2.822 -0.536
30 1 1 0.0 -0.536 2.822 0.536
31 1 2 0.0 0.0 6.751 3.343
32 1 1 0.0 -0.536 6.165 3.879
33 1 1 0.0 0.536 6.165 2.808
34 1 2 0.0 3.343 3.278 3.343
35 1 1 0.0 3.879 3.864 3.879
36 1 1 0.0 2.808 3.864 2.808
37 1 2 0.0 5.015 1.672 1.607
38 1 1 0.0 4.479 2.207 2.192
39 1 1 0.0 5.55 1.136 2.192
40 1 2 0.0 1.672 5.015 1.736
41 1 1 0.0 2.207 5.55 1.151
42 1 1 0.0 1.136 4.479 1.151
43 1 2 0.0 1.672 1.672 5.079
44 1 1 0.0 2.207 2.207 4.494
45 1 1 0.0 1.136 1.136 4.494
46 1 2 0.0 5.015 5.015 4.95
47 1 1 0.0 4.479 5.55 5.535
48 1 1 0.0 5.55 4.479 5.535
49 1 2 0.0 6.621 0.0 0.0
50 1 1 0.0 7.207 -0.536 -0.536
51 1 1 0.0 7.207 0.536 0.536
52 1 2 0.0 10.094 3.343 0.0
53 1 1 0.0 9.508 2.808 0.536
54 1 1 0.0 9.508 3.879 -0.536
55 1 2 0.0 9.964 0.0 3.343
56 1 1 0.0 10.55 -0.536 2.808
57 1 1 0.0 10.55 0.536 3.879
58 1 2 0.0 13.437 3.343 3.343
59 1 1 0.0 12.851 3.879 2.808
60 1 1 0.0 12.851 2.808 3.879
61 1 2 0.0 8.358 1.672 1.607
62 1 1 0.0 7.822 2.207 2.192
63 1 1 0.0 8.893 1.136 2.192
64 1 2 0.0 11.701 5.015 1.736
65 1 1 0.0 12.236 5.55 1.151
66 1 1 0.0 11.165 4.479 1.151
67 1 2 0.0 11.701 1.672 4.95
68 1 1 0.0 11.165 2.207 5.535
69 1 1 0.0 12.236 1.136 5.535
70 1 2 0.0 8.358 5.015 5.079
71 1 1 0.0 7.822 4.479 4.494
72 1 1 0.0 8.893 5.55 4.494
73 1 2 0.0 10.029 -0.065 0.0
74 1 1 0.0 10.565 0.521 0.536
75 1 1 0.0 9.494 0.521 -0.536
76 1 2 0.0 6.686 3.408 0.0
77 1 1 0.0 7.222 2.822 -0.536
78 1 1 0.0 6.151 2.822 0.536
79 1 2 0.0 6.686 6.751 3.343
80 1 1 0.0 6.151 6.165 3.879
81 1 1 0.0 7.222 6.165 2.808
82 1 2 0.0 10.029 3.278 3.343
83 1 1 0.0 10.565 3.864 3.879
84 1 1 0.0 9.494 3.864 2.808
85 1 2 0.0 11.701 1.672 1.607
86 1 1 0.0 11.165 2.207 2.192
87 1 1 0.0 12.236 1.136 2.192
88 1 2 0.0 8.358 5.015 1.736
89 1 1 0.0 8.893 5.55 1.151
90 1 1 0.0 7.822 4.479 1.151
91 1 2 0.0 8.358 1.672 5.079
92 1 1 0.0 8.893 2.207 4.494
93 1 1 0.0 7.822 1.136 4.494
94 1 2 0.0 11.701 5.015 4.95
95 1 1 0.0 11.165 5.55 5.535
96 1 1 0.0 12.236 4.479 5.535
97 1 2 0.0 13.307 0.0 0.0
98 1 1 0.0 13.893 -0.536 -0.536
99 1 1 0.0 13.893 0.536 0.536
100 1 2 0.0 16.78 3.343 0.0
101 1 1 0.0 16.195 2.808 0.536
102 1 1 0.0 16.195 3.879 -0.536
103 1 2 0.0 16.651 0.0 3.343
104 1 1 0.0 17.236 -0.536 2.808
105 1 1 0.0 17.236 0.536 3.879
106 1 2 0.0 20.123 3.343 3.343
107 1 1 0.0 19.538 3.879 2.808
108 1 1 0.0 19.538 2.808 3.879
109 1 2 0.0 15.044 1.672 1.607
110 1 1 0.0 14.508 2.207 2.192
111 1 1 0.0 15.579 1.136 2.192
112 1 2 0.0 18.387 5.015 1.736
113 1 1 0.0 18.923 5.55 1.151
114 1 1 0.0 17.851 4.479 1.151
115 1 2 0.0 18.387 1.672 4.95
116 1 1 0.0 17.851 2.207 5.535
117 1 1 0.0 18.923 1.136 5.535
118 1 2 0.0 15.044 5.015 5.079
119 1 1 0.0 14.508 4.479 4.494
120 1 1 0.0 15.579 5.55 4.494
121 1 2 0.0 16.715 -0.065 0.0
122 1 1 0.0 17.251 0.521 0.536
123 1 1 0.0 16.18 0.521 -0.536
124 1 2 0.0 13.372 3.408 0.0
125 1 1 0.0 13.908 2.822 -0.536
126 1 1 0.0 12.837 2.822 0.536
127 1 2 0.0 13.372 6.751 3.343
128 1 1 0.0 12.837 6.165 3.879
129 1 1 0.0 13.908 6.165 2.808
130 1 2 0.0 16.715 3.278 3.343
131 1 1 0.0 17.251 3.864 3.879
132 1 1 0.0 16.18 3.864 2.808
133 1 2 0.0 18.387 1.672 1.607
134 1 1 0.0 17.851 2.207 2.192
135 1 1 0.0 18.923 1.136 2.192
136 1 2 0.0 15.044 5.015 1.736
137 1 1 0.0 15.579 5.55 1.151
138 1 1 0.0 14.508 4.479 1.151
139 1 2 0.0 15.044 1.672 5.079
140 1 1 0.0 15.579 2.207 4.494
141 1 1 0.0 14.508 1.136 4.494
142 1 2 0.0 18.387 5.015 4.95
143 1 1 0.0 17.851 5.55 5.535
144 1 1 0.0 18.923 4.479 5.535
145 1 2 0.0 -0.065 6.686 0.0
146 1 1 0.0 0.521 6.151 -0.536
147 1 1 0.0 0.521 7.222 0.536
148 1 2 0.0 3.408 10.029 0.0
149 1 1 0.0 2.822 9.494 0.536
150 1 1 0.0 2.822 10.565 -0.536
151 1 2 0.0 3.278 6.686 3.343
152 1 1 0.0 3.864 6.151 2.808
153 1 1 0.0 3.864 7.222 3.879
154 1 2 0.0 6.751 10.029 3.343
155 1 1 0.0 6.165 10.565 2.808
156 1 1 0.0 6.165 9.494 3.879
157 1 2 0.0 1.672 8.358 1.607
158 1 1 0.0 1.136 8.893 2.192
159 1 1 0.0 2.207 7.822 2.192
160 1 2 0.0 5.015 11.701 1.736
161 1 1 0.0 5.55 12.236 1.151
162 1 1 0.0 4.479 11.165 1.151
163 1 2 0.0 5.015 8.358 4.95
164 1 1 0.0 4.479 8.893 5.535
165 1 1 0.0 5.55 7.822 5.535
166 1 2 0.0 1.672 11.701 5.079
167 1 1 0.0 1.136 11.165 4.494
168 1 1 0.0 2.207 12.236 4.494
169 1 2 0.0 3.343 6.621 0.0
170 1 1 0.0 3.879 7.207 0.536
171 1 1 0.0 2.808 7.207 -0.536
172 1 2 0.0 0.0 10.094 0.0
173 1 1 0.0 0.536 9.508 -0.536
174 1 1 0.0 -0.536 9.508 0.536
175 1 2 0.0 0.0 13.437 3.343
176 1 1 0.0 -0.536 12.851 3.879
177 1 1 0.0 0.536 12.851 2.808
178 1 2 0.0 3.343 9.964 3.343
179 1 1 0.0 3.879 10.55 3.879
180 1 1 0.0 2.808 10.55 2.808
181 1 2 0.0 5.015 8.358 1.607
182 1 1 0.0 4.479 8.893 2.192
183 1 1 0.0 5.55 7.822 2.192
184 1 2 0.0 1.672 11.701 1.736
185 1 1 0.0 2.207 12.236 1.151
186 1 1 0.0 1.136 11.165 1.151
187 1 2 0.0 1.672 8.358 5.079
188 1 1 0.0 2.207 8.893 4.494
189 1 1 0.0 1.136 7.822 4.494
190 1 2 0.0 5.015 11.701 4.95
191 1 1 0.0 4.479 12.236 5.535
192 1 1 0.0 5.55 11.165 5.535
193 1 2 0.0 6.621 6.686 0.0
194 1 1 0.0 7.207 6.151 -0.536
195 1 1 0.0 7.207 7.222 0.536
196 1 2 0.0 10.094 10.029 0.0
197 1 1 0.0 9.508 9.494 0.536
198 1 1 0.0 9.508 10.565 -0.536
199 1 2 0.0 9.964 6.686 3.343
200 1 1 0.0 10.55 6.151 2.808
201 1 1 0.0 10.55 7.222 3.879
202 1 2 0.0 13.437 10.029 3.343
203 1 1 0.0 12.851 10.565 2.808
204 1 1 0.0 12.851 9.494 3.879
205 1 2 0.0 8.358 8.358 1.607
206 1 1 0.0 7.822 8.893 2.192
207 1 1 0.0 8.893 7.822 2.192
208 1 2 0.0 11.701 11.701 1.736
209 1 1 0.0 12.236 12.236 1.151
210 1 1 0.0 11.165 11.165 1.151
211 1 2 0.0 11.701 8.358 4.95
212 1 1 0.0 11.165 8.893 5.535
213 1 1 0.0 12.236 7.822 5.535
214 1 2 0.0 8.358 11.701 5.079
215 1 1 0.0 7.822 11.165 4.494
216 1 1 0.0 8.893 12.236 4.494
217 1 2 0.0 10.029 6.621 0.0
218 1 1 0.0 10.565 7.207 0.536
219 1 1 0.0 9.494 7.207 -0.536
220 1 2 0.0 6.686 10.094 0.0
221 1 1 0.0 7.222 9.508 -0.536
222 1 1 0.0 6.151 9.508 0.536
223 1 2 0.0 6.686 13.437 3.343
224 1 1 0.0 6.151 12.851 3.879
225 1 1 0.0 7.222 12.851 2.808
226 1 2 0.0 10.029 9.964 3.343
227 1 1 0.0 10.565 10.55 3.879
228 1 1 0.0 9.494 10.55 2.808
229 1 2 0.0 11.701 8.358 1.607
230 1 1 0.0 11.165 8.893 2.192
231 1 1 0.0 12.236 7.822 2.192
232 1 2 0.0 8.358 11.701 1.736
233 1 1 0.0 8.893 12.236 1.151
234 1 1 0.0 7.822 11.165 1.151
235 1 2 0.0 8.358 8.358 5.079
236 1 1 0.0 8.893 8.893 4.494
237 1 1 0.0 7.822 7.822 4.494
238 1 2 0.0 11.701 11.701 4.95
239 1 1 0.0 11.165 12.236 5.535
240 1 1 0.0 12.236 11.165 5.535
241 1 2 0.0 13.307 6.686 0.0
242 1 1 0.0 13.893 6.151 -0.536
243 1 1 0.0 13.893 7.222 0.536
244 1 2 0.0 16.78 10.029 0.0
245 1 1 0.0 16.195 9.494 0.536
246 1 1 0.0 16.195 10.565 -0.536
247 1 2 0.0 16.651 6.686 3.343
248 1 1 0.0 17.236 6.151 2.808
249 1 1 0.0 17.236 7.222 3.879
250 1 2 0.0 20.123 10.029 3.343
251 1 1 0.0 19.538 10.565 2.808
252 1 1 0.0 19.538 9.494 3.879
253 1 2 0.0 15.044 8.358 1.607
254 1 1 0.0 14.508 8.893 2.192
255 1 1 0.0 15.579 7.822 2.192
256 1 2 0.0 18.387 11.701 1.736
257 1 1 0.0 18.923 12.236 1.151
258 1 1 0.0 17.851 11.165 1.151
259 1 2 0.0 18.387 8.358 4.95
260 1 1 0.0 17.851 8.893 5.535
261 1 1 0.0 18.923 7.822 5.535
262 1 2 0.0 15.044 11.701 5.079
263 1 1 0.0 14.508 11.165 4.494
264 1 1 0.0 15.579 12.236 4.494
265 1 2 0.0 16.715 6.621 0.0
266 1 1 0.0 17.251 7.207 0.536
267 1 1 0.0 16.18 7.207 -0.536
268 1 2 0.0 13.372 10.094 0.0
269 1 1 0.0 13.908 9.508 -0.536
270 1 1 0.0 12.837 9.508 0.536
271 1 2 0.0 13.372 13.437 3.343
272 1 1 0.0 12.837 12.851 3.879
273 1 1 0.0 13.908 12.851 2.808
274 1 2 0.0 16.715 9.964 3.343
275 1 1 0.0 17.251 10.55 3.879
276 1 1 0.0 16.18 10.55 2.808
277 1 2 0.0 18.387 8.358 1.607
278 1 1 0.0 17.851 8.893 2.192
279 1 1 0.0 18.923 7.822 2.192
280 1 2 0.0 15.044 11.701 1.736
281 1 1 0.0 15.579 12.236 1.151
282 1 1 0.0 14.508 11.165 1.151
283 1 2 0.0 15.044 8.358 5.079
284 1 1 0.0 15.579 8.893 4.494
285 1 1 0.0 14.508 7.822 4.494
286 1 2 0.0 18.387 11.701 4.95
287 1 1 0.0 17.851 12.236 5.535
288 1 1 0.0 18.923 11.165 5.535
289 1 2 0.0 -0.065 13.372 0.0
290 1 1 0.0 0.521 12.837 -0.536
291 1 1 0.0 0.521 13.908 0.536
292 1 2 0.0 3.408 16.715 0.0
293 1 1 0.0 2.822 16.18 0.536
294 1 1 0.0 2.822 17.251 -0.536
295 1 2 0.0 3.278 13.372 3.343
296 1 1 0.0 3.864 12.837 2.808
297 1 1 0.0 3.864 13.908 3.879
298 1 2 0.0 6.751 16.715 3.343
299 1 1 0.0 6.165 17.251 2.808
300 1 1 0.0 6.165 16.18 3.879
301 1 2 0.0 1.672 15.044 1.607
302 1 1 0.0 1.136 15.579 2.192
303 1 1 0.0 2.207 14.508 2.192
304 1 2 0.0 5.015 18.387 1.736
305 1 1 0.0 5.55 18.923 1.151
306 1 1 0.0 4.479 17.851 1.151
307 1 2 0.0 5.015 15.044 4.95
308 1 1 0.0 4.479 15.579 5.535
309 1 1 0.0 5.55 14.508 5.535
310 1 2 0.0 1.672 18.387 5.079
311 1 1 0.0 1.136 17.851 4.494
312 1 1 0.0 2.207 18.923 4.494
313 1 2 0.0 3.343 13.307 0.0
314 1 1 0.0 3.879 13.893 0.536
315 1 1 0.0 2.808 13.893 -0.536
316 1 2 0.0 0.0 16.78 0.0
317 1 1 0.0 0.536 16.195 -0.536
318 1 1 0.0 -0.536 16.195 0.536
319 1 2 0.0 0.0 20.123 3.343
320 1 1 0.0 -0.536 19.538 3.879
321 1 1 0.0 0.536 19.538 2.808
322 1 2 0.0 3.343 16.651 3.343
323 1 1 0.0 3.879 17.236 3.879
324 1 1 0.0 2.808 17.236 2.808
325 1 2 0.0 5.015 15.044 1.607
326 1 1 0.0 4.479 15.579 2.192
327 1 1 0.0 5.55 14.508 2.192
328 1 2 0.0 1.672 18.387 1.736
329 1 1 0.0 2.207 18.923 1.151
330 1 1 0.0 1.136 17.851 1.151
331 1 2 0.0 1.672 15.044 5.079
332 1 1 0.0 2.207 15.579 4.494
333 1 1 0.0 1.136 14.508 4.494
334 1 2 0.0 5.015 18.387 4.95
335 1 1 0.0 4.479 18.923 5.535
336 1 1 0.0 5.55 17.851 5.535
337 1 2 0.0 6.621 13.372 0.0
338 1 1 0.0 7.207 12.837 -0.536
339 1 1 0.0 7.207 13.908 0.536
340 1 2 0.0 10.094 16.715 0.0
341 1 1 0.0 9.508 16.18 0.536
342 1 1 0.0 9.508 17.251 -0.536
343 1 2 0.0 9.964 13.372 3.343
344 1 1 0.0 10.55 12.837 2.808
345 1 1 0.0 10.55 13.908 3.879
346 1 2 0.0 13.437 16.715 3.343
347 1 1 0.0 12.851 17.251 2.808
348 1 1 0.0 12.851 16.18 3.879
349 1 2 0.0 8.358 15.044 1.607
350 1 1 0.0 7.822 15.579 2.192
351 1 1 0.0 8.893 14.508 2.192
352 1 2 0.0 11.701 18.387 1.736
353 1 1 0.0 12.236 18.923 1.151
354 1 1 0.0 11.165 17.851 1.151
355 1 2 0.0 11.701 15.044 4.95
356 1 1 0.0 11.165 15.579 5.535
357 1 1 0.0 12.236 14.508 5.535
358 1 2 0.0 8.358 18.387 5.079
359 1 1 0.0 7.822 17.851 4.494
360 1 1 0.0 8.893 18.923 4.494
361 1 2 0.0 10.029 13.307 0.0
362 1 1 0.0 10.565 13.893 0.536
363 1 1 0.0 9.494 13.893 -0.536
364 1 2 0.0 6.686 16.78 0.0
365 1 1 0.0 7.222 16.195 -0.536
366 1 1 0.0 6.151 16.195 0.536
367 1 2 0.0 6.686 20.123 3.343
368 1 1 0.0 6.151 19.538 3.879
369 1 1 0.0 7.222 19.538 2.808
370 1 2 0.0 10.029 16.651 3.343
371 1 1 0.0 10.565 17.236 3.879
372 1 1 0.0 9.494 17.236 2.808
373 1 2 0.0 11.701 15.044 1.607
374 1 1 0.0 11.165 15.579 2.192
375 1 1 0.0 12.236 14.508 2.192
376 1 2 0.0 8.358 18.387 1.736
377 1 1 0.0 8.893 18.923 1.151
378 1 1 0.0 7.822 17.851 1.151
379 1 2 0.0 8.358 15.044 5.079
380 1 1 0.0 8.893 15.579 4.494
381 1 1 0.0 7.822 14.508 4.494
382 1 2 0.0 11.701 18.387 4.95
383 1 1 0.0 11.165 18.923 5.535
384 1 1 0.0 12.236 17.851 5.535
385 1 2 0.0 13.307 13.372 0.0
386 1 1 0.0 13.893 12.837 -0.536
387 1 1 0.0 13.893 13.908 0.536
388 1 2 0.0 16.78 16.715 0.0
389 1 1 0.0 16.195 16.18 0.536
390 1 1 0.0 16.195 17.251 -0.536
391 1 2 0.0 16.651 13.372 3.343
392 1 1 0.0 17.236 12.837 2.808
393 1 1 0.0 17.236 13.908 3.879
394 1 2 0.0 20.123 16.715 3.343
395 1 1 0.0 19.538 17.251 2.808
396 1 1 0.0 19.538 16.18 3.879
397 1 2 0.0 15.044 15.044 1.607
398 1 1 0.0 14.508 15.579 2.192
399 1 1 0.0 15.579 14.508 2.192
400 1 2 0.0 18.387 18.387 1.736
401 1 1 0.0 18.923 18.923 1.151
402 1 1 0.0 17.851 17.851 1.151
403 1 2 0.0 18.387 15.044 4.95
404 1 1 0.0 17.851 15.579 5.535
405 1 1 0.0 18.923 14.508 5.535
406 1 2 0.0 15.044 18.387 5.079
407 1 1 0.0 14.508 17.851 4.494
408 1 1 0.0 15.579 18.923 4.494
409 1 2 0.0 16.715 13.307 0.0
410 1 1 0.0 17.251 13.893 0.536
411 1 1 0.0 16.18 13.893 -0.536
412 1 2 0.0 13.372 16.78 0.0
413 1 1 0.0 13.908 16.195 -0.536
414 1 1 0.0 12.837 16.195 0.536
415 1 2 0.0 13.372 20.123 3.343
416 1 1 0.0 12.837 19.538 3.879
417 1 1 0.0 13.908 19.538 2.808
418 1 2 0.0 16.715 16.651 3.343
419 1 1 0.0 17.251 17.236 3.879
420 1 1 0.0 16.18 17.236 2.808
421 1 2 0.0 18.387 15.044 1.607
422 1 1 0.0 17.851 15.579 2.192
423 1 1 0.0 18.923 14.508 2.192
424 1 2 0.0 15.044 18.387 1.736
425 1 1 0.0 15.579 18.923 1.151
426 1 1 0.0 14.508 17.851 1.151
427 1 2 0.0 15.044 15.044 5.079
428 1 1 0.0 15.579 15.579 4.494
429 1 1 0.0 14.508 14.508 4.494
430 1 2 0.0 18.387 18.387 4.95
431 1 1 0.0 17.851 18.923 5.535
432 1 1 0.0 18.923 17.851 5.535
433 1 2 0.0 -0.065 0.0 6.686
434 1 1 0.0 0.521 -0.536 6.151
435 1 1 0.0 0.521 0.536 7.222
436 1 2 0.0 3.408 3.343 6.686
437 1 1 0.0 2.822 2.808 7.222
438 1 1 0.0 2.822 3.879 6.151
439 1 2 0.0 3.278 0.0 10.029
440 1 1 0.0 3.864 -0.536 9.494
441 1 1 0.0 3.864 0.536 10.565
442 1 2 0.0 6.751 3.343 10.029
443 1 1 0.0 6.165 3.879 9.494
444 1 1 0.0 6.165 2.808 10.565
445 1 2 0.0 1.672 1.672 8.293
446 1 1 0.0 1.136 2.207 8.879
447 1 1 0.0 2.207 1.136 8.879
448 1 2 0.0 5.015 5.015 8.423
449 1 1 0.0 5.55 5.55 7.837
450 1 1 0.0 4.479 4.479 7.837
451 1 2 0.0 5.015 1.672 11.636
452 1 1 0.0 4.479 2.207 12.222
453 1 1 0.0 5.55 1.136 12.222
454 1 2 0.0 1.672 5.015 11.766
455 1 1 0.0 1.136 4.479 11.18
456 1 1 0.0 2.207 5.55 11.18
457 1 2 0.0 3.343 -0.065 6.686
458 1 1 0.0 3.879 0.521 7.222
459 1 1 0.0 2.808 0.521 6.151
460 1 2 0.0 0.0 3.408 6.686
461 1 1 0.0 0.536 2.822 6.151
462 1 1 0.0 -0.536 2.822 7.222
463 1 2 0.0 0.0 6.751 10.029
464 1 1 0.0 -0.536 6.165 10.565
465 1 1 0.0 0.536 6.165 9.494
466 1 2 0.0 3.343 3.278 10.029
467 1 1 0.0 3.879 3.864 10.565
468 1 1 0.0 2.808 3.864 9.494
469 1 2 0.0 5.015 1.672 8.293
470 1 1 0.0 4.479 2.207 8.879
471 1 1 0.0 5.55 1.136 8.879
472 1 2 0.0 1.672 5.015 8.423
473 1 1 0.0 2.207 5.55 7.837
474 1 1 0.0 1.136 4.479 7.837
475 1 2 0.0 1.672 1.672 11.766
476 1 1 0.0 2.207 2.207 11.18
477 1 1 0.0 1.136 1.136 11.18
478 1 2 0.0 5.015 5.015 11.636
479 1 1 0.0 4.479 5.55 12.222
480 1 1 0.0 5.55 4.479 12.222
481 1 2 0.0 6.621 0.0 6.686
482 1 1 0.0 7.207 -0.536 6.151
483 1 1 0.0 7.207 0.536 7.222
484 1 2 0.0 10.094 3.343 6.686
485 1 1 0.0 9.508 2.808 7.222
486 1 1 0.0 9.508 3.879 6.151
487 1 2 0.0 9.964 0.0 10.029
488 1 1 0.0 10.55 -0.536 9.494
489 1 1 0.0 10.55 0.536 10.565
490 1 2 0.0 13.437 3.343 10.029
491 1 1 0.0 12.851 3.879 9.494
492 1 1 0.0 12.851 2.808 10.565
493 1 2 0.0 8.358 1.672 8.293
494 1 1 0.0 7.822 2.207 8.879
495 1 1 0.0 8.893 1.136 8.879
496 1 2 0.0 11.701 5.015 8.423
497 1 1 0.0 12.236 5.55 7.837
498 1 1 0.0 11.165 4.479 7.837
499 1 2 0.0 11.701 1.672 11.636
500 1 1 0.0 11.165 2.207 12.222
501 1 1 0.0 12.236 1.136 12.222
502 1 2 0.0 8.358 5.015 11.766
503 1 1 0.0 7.822 4.479 11.18
504 1 1 0.0 8.893 5.55 11.18
505 1 2 0.0 10.029 -0.065 6.686
506 1 1 0.0 10.565 0.521 7.222
507 1 1 0.0 9.494 0.521 6.151
508 1 2 0.0 6.686 3.408 6.686
509 1 1 0.0 7.222 2.822 6.151
510 1 1 0.0 6.151 2.822 7.222
511 1 2 0.0 6.686 6.751 10.029
512 1 1 0.0 6.151 6.165 10.565
513 1 1 0.0 7.222 6.165 9.494
514 1 2 0.0 10.029 3.278 10.029
515 1 1 0.0 10.565 3.864 10.565
516 1 1 0.0 9.494 3.864 9.494
517 1 2 0.0 11.701 1.672 8.293
518 1 1 0.0 11.165 2.207 8.879
519 1 1 0.0 12.236 1.136 8.879
520 1 2 0.0 8.358 5.015 8.423
521 1 1 0.0 8.893 5.55 7.837
522 1 1 0.0 7.822 4.479 7.837
523 1 2 0.0 8.358 1.672 11.766
524 1 1 0.0 8.893 2.207 11.18
525 1 1 0.0 7.822 1.136 11.18
526 1 2 0.0 11.701 5.015 11.636
527 1 1 0.0 11.165 5.55 12.222
528 1 1 0.0 12.236 4.479 12.222
529 1 2 0.0 13.307 0.0 6.686
530 1 1 0.0 13.893 -0.536 6.151
531 1 1 0.0 13.893 0.536 7.222
532 1 2 0.0 16.78 3.343 6.686
533 1 1 0.0 16.195 2.808 7.222
534 1 1 0.0 16.195 3.879 6.151
535 1 2 0.0 16.651 0.0 10.029
536 1 1 0.0 17.236 -0.536 9.494
537 1 1 0.0 17.236 0.536 10.565
538 1 2 0.0 20.123 3.343 10.029
539 1 1 0.0 19.538 3.879 9.494
540 1 1 0.0 19.538 2.808 10.565
541 1 2 0.0 15.044 1.672 8.293
542 1 1 0.0 14.508 2.207 8.879
543 1 1 0.0 15.579 1.136 8.879
544 1 2 0.0 18.387 5.015 8.423
545 1 1 0.0 18.923 5.55 7.837
546 1 1 0.0 17.851 4.479 7.837
547 1 2 0.0 18.387 1.672 11.636
548 1 1 0.0 17.851 2.207 12.222
549 1 1 0.0 18.923 1.136 12.222
550 1 2 0.0 15.044 5.015 11.766
551 1 1 0.0 14.508 4.479 11.18
552 1 1 0.0 15.579 5.55 11.18
553 1 2 0.0 16.715 -0.065 6.686
554 1 1 0.0 17.251 0.521 7.222
555 1 1 0.0 16.18 0.521 6.151
556 1 2 0.0 13.372 3.408 6.686
557 1 1 0.0 13.908 2.822 6.151
558 1 1 0.0 12.837 2.822 7.222
559 1 2 0.0 13.372 6.751 10.029
560 1 1 0.0 12.837 6.165 10.565
561 1 1 0.0 13.908 6.165 9.494
562 1 2 0.0 16.715 3.278 10.029
563 1 1 0.0 17.251 3.864 10.565
564 1 1 0.0 16.18 3.864 9.494
565 1 2 0.0 18.387 1.672 8.293
566 1 1 0.0 17.851 2.207 8.879
567 1 1 0.0 18.923 1.136 8.879
568 1 2 0.0 15.044 5.015 8.423
569 1 1 0.0 15.579 5.55 7.837
570 1 1 0.0 14.508 4.479 7.837
571 1 2 0.0 15.044 1.672 11.766
572 1 1 0.0 15.579 2.207 11.18
573 1 1 0.0 14.508 1.136 11.18
574 1 2 0.0 18.387 5.015 11.636
575 1 1 0.0 17.851 5.55 12.222
576 1 1 0.0 18.923 4.479 12.222
577 1 2 0.0 -0.065 6.686 6.686
578 1 1 0.0 0.521 6.151 6.151
579 1 1 0.0 0.521 7.222 7.222
580 1 2 0.0 3.408 10.029 6.686
581 1 1 0.0 2.822 9.494 7.222
582 1 1 0.0 2.822 10.565 6.151
583 1 2 0.0 3.278 6.686 10.029
584 1 1 0.0 3.864 6.151 9.494
585 1 1 0.0 3.864 7.222 10.565
586 1 2 0.0 6.751 10.029 10.029
587 1 1 0.0 6.165 10.565 9.494
588 1 1 0.0 6.165 9.494 10.565
589 1 2 0.0 1.672 8.358 8.293
590 1 1 0.0 1.136 8.893 8.879
591 1 1 0.0 2.207 7.822 8.879
592 1 2 0.0 5.015 11.701 8.423
593 1 1 0.0 5.55 12.236 7.837
594 1 1 0.0 4.479 11.165 7.837
595 1 2 0.0 5.015 8.358 11.636
596 1 1 0.0 4.479 8.893 12.222
597 1 1 0.0 5.55 7.822 12.222
598 1 2 0.0 1.672 11.701 11.766
599 1 1 0.0 1.136 11.165 11.18
600 1 1 0.0 2.207 12.236 11.18
601 1 2 0.0 3.343 6.621 6.686
602 1 1 0.0 3.879 7.207 7.222
603 1 1 0.0 2.808 7.207 6.151
604 1 2 0.0 0.0 10.094 6.686
605 1 1 0.0 0.536 9.508 6.151
606 1 1 0.0 -0.536 9.508 7.222
607 1 2 0.0 0.0 13.437 10.029
608 1 1 0.0 -0.536 12.851 10.565
609 1 1 0.0 0.536 12.851 9.494
610 1 2 0.0 3.343 9.964 10.029
611 1 1 0.0 3.879 10.55 10.565
612 1 1 0.0 2.808 10.55 9.494
613 1 2 0.0 5.015 8.358 8.293
614 1 1 0.0 4.479 8.893 8.879
615 1 1 0.0 5.55 7.822 8.879
616 1 2 0.0 1.672 11.701 8.423
617 1 1 0.0 2.207 12.236 7.837
618 1 1 0.0 1.136 11.165 7.837
619 1 2 0.0 1.672 8.358 11.766
620 1 1 0.0 2.207 8.893 11.18
621 1 1 0.0 1.136 7.822 11.18
622 1 2 0.0 5.015 11.701 11.636
623 1 1 0.0 4.479 12.236 12.222
624 1 1 0.0 5.55 11.165 12.222
625 1 2 0.0 6.621 6.686 6.686
626 1 1 0.0 7.207 6.151 6.151
627 1 1 0.0 7.207 7.222 7.222
628 1 2 0.0 10.094 10.029 6.686
629 1 1 0.0 9.508 9.494 7.222
630 1 1 0.0 9.508 10.565 6.151
631 1 2 0.0 9.964 6.686 10.029
632 1 1 0.0 10.55 6.151 9.494
633 1 1 0.0 10.55 7.222 10.565
634 1 2 0.0 13.437 10.029 10.029
635 1 1 0.0 12.851 10.565 9.494
636 1 1 0.0 12.851 9.494 10.565
637 1 2 0.0 8.358 8.358 8.293
638 1 1 0.0 7.822 8.893 8.879
639 1 1 0.0 8.893 7.822 8.879
640 1 2 0.0 11.701 11.701 8.423
641 1 1 0.0 12.236 12.236 7.837
642 1 1 0.0 11.165 11.165 7.837
643 1 2 0.0 11.701 8.358 11.636
644 1 1 0.0 11.165 8.893 12.222
645 1 1 0.0 12.236 7.822 12.222
646 1 2 0.0 8.358 11.701 11.766
647 1 1 0.0 7.822 11.165 11.18
648 1 1 0.0 8.893 12.236 11.18
649 1 2 0.0 10.029 6.621 6.686
650 1 1 0.0 10.565 7.207 7.222
651 1 1 0.0 9.494 7.207 6.151
652 1 2 0.0 6.686 10.094 6.686
653 1 1 0.0 7.222 9.508 6.151
654 1 1 0.0 6.151 9.508 7.222
655 1 2 0.0 6.686 13.437 10.029
656 1 1 0.0 6.151 12.851 10.565
657 1 1 0.0 7.222 12.851 9.494
658 1 2 0.0 10.029 9.964 10.029
659 1 1 0.0 10.565 10.55 10.565
660 1 1 0.0 9.494 10.55 9.494
661 1 2 0.0 11.701 8.358 8.293
662 1 1 0.0 11.165 8.893 8.879
663 1 1 0.0 12.236 7.822 8.879
664 1 2 0.0 8.358 11.701 8.423
665 1 1 0.0 8.893 12.236 7.837
666 1 1 0.0 7.822 11.165 7.837
667 1 2 0.0 8.358 8.358 11.766
668 1 1 0.0 8.893 8.893 11.18
669 1 1 0.0 7.822 7.822 11.18
670 1 2 0.0 11.701 11.701 11.636
671 1 1 0.0 11.165 12.236 12.222
672 1 1 0.0 12.236 11.165 12.222
673 1 2 0.0 13.307 6.686 6.686
674 1 1 0.0 13.893 6.151 6.151
675 1 1 0.0 13.893 7.222 7.222
676 1 2 0.0 16.78 10.029 6.686
677 1 1 0.0 16.195 9.494 7.222
678 1 1 0.0 16.195 10.565 6.151
679 1 2 0.0 16.651 6.686 10.029
680 1 1 0.0 17.236 6.151 9.494
681 1 1 0.0 17.236 7.222 10.565
682 1 2 0.0 20.123 10.029 10.029
683 1 1 0.0 19.538 10.565 9.494
684 1 1 0.0 19.538 9.494 10.565
685 1 2 0.0 15.044 8.358 8.293
686 1 1 0.0 14.508 8.893 8.879
687 1 1 0.0 15.579 7.822 8.879
688 1 2 0.0 18.387 11.701 8.423
689 1 1 0.0 18.923 12.236 7.837
690 1 1 0.0 17.851 11.165 7.837
691 1 2 0.0 18.387 8.358 11.636
692 1 1 0.0 17.851 8.893 12.222
693 1 1 0.0 18.923 7.822 12.222
694 1 2 0.0 15.044 11.701 11.766
695 1 1 0.0 14.508 11.165 11.18
696 1 1 0.0 15.579 12.236 11.18
697 1 2 0.0 16.715 6.621 6.686
698 1 1 0.0 17.251 7.207 7.222
699 1 1 0.0 16.18 7.207 6.151
700 1 2 0.0 13.372 10.094 6.686
701 1 1 0.0 13.908 9.508 6.151
702 1 1 0.0 12.837 9.508 7.222
703 1 2 0.0 13.372 13.437 10.029
704 1 1 0.0 12.837 12.851 10.565
705 1 1 0.0 13.908 12.851 9.494
706 1 2 0.0 16.715 9.964 10.029
707 1 1 0.0 17.251 10.55 10.565
708 1 1 0.0 16.18 10.55 9.494
709 1 2 0.0 18.387 8.358 8.293
710 1 1 0.0 17.851 8.893 8.879
711 1 1 0.0 18.923 7.822 8.879
712 1 2 0.0 15.044 11.701 8.423
713 1 1 0.0 15.579 12.236 7.837
714 1 1 0.0 14.508 11.165 7.837
715 1 2 0.0 15.044 8.358 11.766
716 1 1 0.0 15.579 8.893 11.18
717 1 1 0.0 14.508 7.822 11.18
718 1 2 0.0 18.387 11.701 11.636
719 1 1 0.0 17.851 12.236 12.222
720 1 1 0.0 18.923 11.165 12.222
721 1 2 0.0 -0.065 13.372 6.686
722 1 1 0.0 0.521 12.837 6.151
723 1 1 0.0 0.521 13.908 7.222
724 1 2 0.0 3.408 16.715 6.686
725 1 1 0.0 2.822 16.18 7.222
726 1 1 0.0 2.822 17.251 6.151
727 1 2 0.0 3.278 13.372 10.029
728 1 1 0.0 3.864 12.837 9.494
729 1 1 0.0 3.864 13.908 10.565
730 1 2 0.0 6.751 16.715 10.029
731 1 1 0.0 6.165 17.251 9.494
732 1 1 0.0 6.165 16.18 10.565
733 1 2 0.0 1.672 15.044 8.293
734 1 1 0.0 1.136 15.579 8.879
735 1 1 0.0 2.207 14.508 8.879
736 1 2 0.0 5.015 18.387 8.423
737 1 1 0.0 5.55 18.923 7.837
738 1 1 0.0 4.479 17.851 7.837
739 1 2 0.0 5.015 15.044 11.636
740 1 1 0.0 4.479 15.579 12.222
741 1 1 0.0 5.55 14.508 12.222
742 1 2 0.0 1.672 18.387 11.766
743 1 1 0.0 1.136 17.851 11.18
744 1 1 0.0 2.207 18.923 11.18
745 1 2 0.0 3.343 13.307 6.686
746 1 1 0.0 3.879 13.893 7.222
747 1 1 0.0 2.808 13.893 6.151
748 1 2 0.0 0.0 16.78 6.686
749 1 1 0.0 0.536 16.195 6.151
750 1 1 0.0 -0.536 16.195 7.222
751 1 2 0.0 0.0 20.123 10.029
752 1 1 0.0 -0.536 19.538 10.565
753 1 1 0.0 0.536 19.538 9.494
754 1 2 0.0 3.343 16.651 10.029
755 1 1 0.0 3.879 17.236 10.565
756 1 1 0.0 2.808 17.236 9.494
757 1 2 0.0 5.015 15.044 8.293
758 1 1 0.0 4.479 15.579 8.879
759 1 1 0.0 5.55 14.508 8.879
760 1 2 0.0 1.672 18.387 8.423
761 1 1 0.0 2.207 18.923 7.837
762 1 1 0.0 1.136 17.851 7.837
763 1 2 0.0 1.672 15.044 11.766
764 1 1 0.0 2.207 15.579 11.18
765 1 1 0.0 1.136 14.508 11.18
766 1 2 0.0 5.015 18.387 11.636
767 1 1 0.0 4.479 18.923 12.222
768 1 1 0.0 5.55 17.851 12.222
769 1 2 0.0 6.621 13.372 6.686
770 1 1 0.0 7.207 12.837 6.151
771 1 1 0.0 7.207 13.908 7.222
772 1 2 0.0 10.094 16.715 6.686
773 1 1 0.0 9.508 16.18 7.222
774 1 1 0.0 9.508 17.251 6.151
775 1 2 0.0 9.964 13.372 10.029
776 1 1 0.0 10.55 12.837 9.494
777 1 1 0.0 10.55 13.908 10.565
778 1 2 0.0 13.437 16.715 10.029
779 1 1 0.0 12.851 17.251 9.494
780 1 1 0.0 12.851 16.18 10.565
781 1 2 0.0 8.358 15.044 8.293
782 1 1 0.0 7.822 15.579 8.879
783 1 1 0.0 8.893 14.508 8.879
784 1 2 0.0 11.701 18.387 8.423
785 1 1 0.0 12.236 18.923 7.837
786 1 1 0.0 11.165 17.851 7.837
787 1 2 0.0 11.701 15.044 11.636
788 1 1 0.0 11.165 15.579 12.222
789 1 1 0.0 12.236 14.508 12.222
790 1 2 0.0 8.358 18.387 11.766
791 1 1 0.0 7.822 17.851 11.18
792 1 1 0.0 8.893 18.923 11.18
793 1 2 0.0 10.029 13.307 6.686
794 1 1 0.0 10.565 13.893 7.222
795 1 1 0.0 9.494 13.893 6.151
796 1 2 0.0 6.686 16.78 6.686
797 1 1 0.0 7.222 16.195 6.151
798 1 1 0.0 6.151 16.195 7.222
799 1 2 0.0 6.686 20.123 10.029
800 1 1 0.0 6.151 19.538 10.565
801 1 1 0.0 7.222 19.538 9.494
802 1 2 0.0 10.029 16.651 10.029
803 1 1 0.0 10.565 17.236 10.565
804 1 1 0.0 9.494 17.236 9.494
805 1 2 0.0 11.701 15.044 8.293
806 1 1 0.0 11.165 15.579 8.879
807 1 1 0.0 12.236 14.508 8.879
808 1 2 0.0 8.358 18.387 8.423
809 1 1 0.0 8.893 18.923 7.837
810 1 1 0.0 7.822 17.851 7.837
811 1 2 0.0 8.358 15.044 11.766
812 1 1 0.0 8.893 15.579 11.18
813 1 1 0.0 7.822 14.508 11.18
814 1 2 0.0 11.701 18.387 11.636
815 1 1 0.0 11.165 18.923 12.222
816 1 1 0.0 12.236 17.851 12.222
817 1 2 0.0 13.307 13.372 6.686
818 1 1 0.0 13.893 12.837 6.151
819 1 1 0.0 13.893 13.908 7.222
820 1 2 0.0 16.78 16.715 6.686
821 1 1 0.0 16.195 16.18 7.222
822 1 1 0.0 16.195 17.251 6.151
823 1 2 0.0 16.651 13.372 10.029
824 1 1 0.0 17.236 12.837 9.494
825 1 1 0.0 17.236 13.908 10.565
826 1 2 0.0 20.123 16.715 10.029
827 1 1 0.0 19.538 17.251 9.494
828 1 1 0.0 19.538 16.18 10.565
829 1 2 0.0 15.044 15.044 8.293
830 1 1 0.0 14.508 15.579 8.879
831 1 1 0.0 15.579 14.508 8.879
832 1 2 0.0 18.387 18.387 8.423
833 1 1 0.0 18.923 18.923 7.837
834 1 1 0.0 17.851 17.851 7.837
835 1 2 0.0 18.387 15.044 11.636
836 1 1 0.0 17.851 15.579 12.222
837 1 1 0.0 18.923 14.508 12.222
838 1 2 0.0 15.044 18.387 11.766
839 1 1 0.0 14.508 17.851 11.18
840 1 1 0.0 15.579 18.923 11.18
841 1 2 0.0 16.715 13.307 6.686
842 1 1 0.0 17.251 13.893 7.222
843 1 1 0.0 16.18 13.893 6.151
844 1 2 0.0 13.372 16.78 6.686
845 1 1 0.0 13.908 16.195 6.151
846 1 1 0.0 12.837 16.195 7.222
847 1 2 0.0 13.372 20.123 10.029
848 1 1 0.0 12.837 19.538 10.565
849 1 1 0.0 13.908 19.538 9.494
850 1 2 0.0 16.715 16.651 10.029
851 1 1 0.0 17.251 17.236 10.565
852 1 1 0.0 16.18 17.236 9.494
853 1 2 0.0 18.387 15.044 8.293
854 1 1 0.0 17.851 15.579 8.879
855 1 1 0.0 18.923 14.508 8.879
856 1 2 0.0 15.044 18.387 8.423
857 1 1 0.0 15.579 18.923 7.837
858 1 1 0.0 14.508 17.851 7.837
859 1 2 0.0 15.044 15.044 11.766
860 1 1 0.0 15.579 15.579 11.18
861 1 1 0.0 14.508 14.508 11.18
862 1 2 0.0 18.387 18.387 11.636
863 1 1 0.0 17.851 18.923 12.222
864 1 1 0.0 18.923 17.851 12.222
865 1 2 0.0 20.059 3.408 0.0
866 1 1 0.0 20.594 2.822 -0.536
867 1 1 0.0 19.523 2.822 0.536
868 1 2 0.0 20.059 6.751 3.343
869 1 1 0.0 19.523 6.165 3.879
870 1 1 0.0 20.594 6.165 2.808
871 1 2 0.0 20.059 10.094 0.0
872 1 1 0.0 20.594 9.508 -0.536
873 1 1 0.0 19.523 9.508 0.536
874 1 2 0.0 20.059 13.437 3.343
875 1 1 0.0 19.523 12.851 3.879
876 1 1 0.0 20.594 12.851 2.808
877 1 2 0.0 20.059 16.78 0.0
878 1 1 0.0 20.594 16.195 -0.536
879 1 1 0.0 19.523 16.195 0.536
880 1 2 0.0 20.059 20.123 3.343
881 1 1 0.0 19.523 19.538 3.879
882 1 1 0.0 20.594 19.538 2.808
883 1 2 0.0 20.059 3.408 6.686
884 1 1 0.0 20.594 2.822 6.151
885 1 1 0.0 19.523 2.822 7.222
886 1 2 0.0 20.059 6.751 10.029
887 1 1 0.0 19.523 6.165 10.565
888 1 1 0.0 20.594 6.165 9.494
889 1 2 0.0 20.059 10.094 6.686
890 1 1 0.0 20.594 9.508 6.151
891 1 1 0.0 19.523 9.508 7.222
892 1 2 0.0 20.059 13.437 10.029
893 1 1 0.0 19.523 12.851 10.565
894 1 1 0.0 20.594 12.851 9.494
895 1 2 0.0 20.059 16.78 6.686
896 1 1 0.0 20.594 16.195 6.151
897 1 1 0.0 19.523 16.195 7.222
898 1 2 0.0 20.059 20.123 10.029
899 1 1 0.0 19.523 19.538 10.565
900 1 1 0.0 20.594 19.538 9.494
901 1 2 0.0 -0.065 20.059 0.0
902 1 1 0.0 0.521 19.523 -0.536
903 1 1 0.0 0.521 20.594 0.536
904 1 2 0.0 3.278 20.059 3.343
905 1 1 0.0 3.864 19.523 2.808
906 1 1 0.0 3.864 20.594 3.879
907 1 2 0.0 6.621 20.059 0.0
908 1 1 0.0 7.207 19.523 -0.536
909 1 1 0.0 7.207 20.594 0.536
910 1 2 0.0 9.964 20.059 3.343
911 1 1 0.0 10.55 19.523 2.808
912 1 1 0.0 10.55 20.594 3.879
913 1 2 0.0 13.307 20.059 0.0
914 1 1 0.0 13.893 19.523 -0.536
915 1 1 0.0 13.893 20.594 0.536
916 1 2 0.0 16.651 20.059 3.343
917 1 1 0.0 17.236 19.523 2.808
918 1 1 0.0 17.236 20.594 3.879
919 1 2 0.0 -0.065 20.059 6.686
920 1 1 0.0 0.521 19.523 6.151
921 1 1 0.0 0.521 20.594 7.222
922 1 2 0.0 3.278 20.059 10.029
923 1 1 0.0 3.864 19.523 9.494
924 1 1 0.0 3.864 20.594 10.565
925 1 2 0.0 6.621 20.059 6.686
926 1 1 0.0 7.207 19.523 6.151
927 1 1 0.0 7.207 20.594 7.222
928 1 2 0.0 9.964 20.059 10.029
929 1 1 0.0 10.55 19.523 9.494
930 1 1 0.0 10.55 20.594 10.565
931 1 2 0.0 13.307 20.059 6.686
932 1 1 0.0 13.893 19.523 6.151
933 1 1 0.0 13.893 20.594 7.222
934 1 2 0.0 16.651 20.059 10.029
935 1 1 0.0 17.236 19.523 9.494
936 1 1 0.0 17.236 20.594 10.565
937 1 2 0.0 -0.065 0.0 13.372
938 1 1 0.0 0.521 -0.536 12.837
939 1 1 0.0 0.521 0.536 13.908
940 1 2 0.0 3.408 3.343 13.372
941 1 1 0.0 2.822 2.808 13.908
942 1 1 0.0 2.822 3.879 12.837
943 1 2 0.0 3.343 -0.065 13.372
944 1 1 0.0 3.879 0.521 13.908
945 1 1 0.0 2.808 0.521 12.837
946 1 2 0.0 0.0 3.408 13.372
947 1 1 0.0 0.536 2.822 12.837
948 1 1 0.0 -0.536 2.822 13.908
949 1 2 0.0 6.621 0.0 13.372
950 1 1 0.0 7.207 -0.536 12.837
951 1 1 0.0 7.207 0.536 13.908
952 1 2 0.0 10.094 3.343 13.372
953 1 1 0.0 9.508 2.808 13.908
954 1 1 0.0 9.508 3.879 12.837
955 1 2 0.0 10.029 -0.065 13.372
956 1 1 0.0 10.565 0.521 13.908
957 1 1 0.0 9.494 0.521 12.837
958 1 2 0.0 6.686 3.408 13.372
959 1 1 0.0 7.222 2.822 12.837
960 1 1 0.0 6.151 2.822 13.908
961 1 2 0.0 13.307 0.0 13.372
962 1 1 0.0 13.893 -0.536 12.837
963 1 1 0.0 13.893 0.536 13.908
964 1 2 0.0 16.78 3.343 13.372