# LAMMPS data file written by OVITO Basic 3.5.4
1728 atoms
1152 bonds
2 atom types
1 bond types
-0.757 19.381 xlo xhi
0.407 18.217 ylo yhi
0.382 26.718 zlo zhi

Masses

1 1.00794  # H
2 15.9994  # O

Atoms  # full

1 1 2 0.0 0.0 1.164 0.725
2 1 1 0.0 0.0 0.407 1.312
3 1 1 0.0 0.0 1.921 1.312
4 1 2 0.0 0.0 1.164 7.5
5 1 1 0.0 0.0 0.407 8.087
6 1 1 0.0 0.0 1.921 8.087
7 1 2 0.0 0.0 5.82 0.725
8 1 1 0.0 0.0 6.577 1.312
9 1 1 0.0 0.0 5.063 1.312
10 1 2 0.0 0.0 5.82 7.5
11 1 1 0.0 0.0 6.577 8.087
12 1 1 0.0 0.0 5.063 8.087
13 1 2 0.0 4.656 1.164 0.725
14 1 1 0.0 4.656 0.407 1.312
15 1 1 0.0 4.656 1.921 1.312
16 1 2 0.0 4.656 1.164 7.5
17 1 1 0.0 4.656 0.407 8.087
18 1 1 0.0 4.656 1.921 8.087
19 1 2 0.0 4.656 5.82 0.725
20 1 1 0.0 4.656 6.577 1.312
21 1 1 0.0 4.656 5.063 1.312
22 1 2 0.0 4.656 5.82 7.5
23 1 1 0.0 4.656 6.577 8.087
24 1 1 0.0 4.656 5.063 8.087
25 1 2 0.0 6.984 1.164 12.581
26 1 1 0.0 6.227 1.164 13.168
27 1 1 0.0 7.741 1.164 13.168
28 1 2 0.0 6.984 1.164 5.806
29 1 1 0.0 6.227 1.164 6.393
30 1 1 0.0 7.741 1.164 6.393
31 1 2 0.0 6.984 5.82 12.581
32 1 1 0.0 6.227 5.82 13.168
33 1 1 0.0 7.741 5.82 13.168
34 1 2 0.0 6.984 5.82 5.806
35 1 1 0.0 6.227 5.82 6.393
36 1 1 0.0 7.741 5.82 6.393
37 1 2 0.0 2.328 1.164 12.581
38 1 1 0.0 3.085 1.164 13.168
39 1 1 0.0 1.571 1.164 13.168
40 1 2 0.0 2.328 1.164 5.806
41 1 1 0.0 3.085 1.164 6.393
42 1 1 0.0 1.571 1.164 6.393
43 1 2 0.0 2.328 5.82 12.581
44 1 1 0.0 3.085 5.82 13.168
45 1 1 0.0 1.571 5.82 13.168
46 1 2 0.0 2.328 5.82 5.806
47 1 1 0.0 3.085 5.82 6.393
48 1 1 0.0 1.571 5.82 6.393
49 1 2 0.0 0.0 8.148 2.419
50 1 1 0.0 -0.757 8.148 3.005
51 1 1 0.0 0.757 8.148 3.005
52 1 2 0.0 0.0 8.148 9.194
53 1 1 0.0 -0.757 8.148 9.78
54 1 1 0.0 0.757 8.148 9.78
55 1 2 0.0 0.0 3.492 2.419
56 1 1 0.0 -0.757 3.492 3.005
57 1 1 0.0 0.757 3.492 3.005
58 1 2 0.0 0.0 3.492 9.194
59 1 1 0.0 -0.757 3.492 9.78
60 1 1 0.0 0.757 3.492 9.78
61 1 2 0.0 4.656 8.148 2.419
62 1 1 0.0 5.413 8.148 3.005
63 1 1 0.0 3.899 8.148 3.005
64 1 2 0.0 4.656 8.148 9.194
65 1 1 0.0 5.413 8.148 9.78
66 1 1 0.0 3.899 8.148 9.78
67 1 2 0.0 4.656 3.492 2.419
68 1 1 0.0 5.413 3.492 3.005
69 1 1 0.0 3.899 3.492 3.005
70 1 2 0.0 4.656 3.492 9.194
71 1 1 0.0 5.413 3.492 9.78
72 1 1 0.0 3.899 3.492 9.78
73 1 2 0.0 0.0 8.148 12.825
74 1 1 0.0 0.0 7.391 12.238
75 1 1 0.0 0.0 8.905 12.238
76 1 2 0.0 0.0 8.148 6.05
77 1 1 0.0 0.0 7.391 5.463
78 1 1 0.0 0.0 8.905 5.463
79 1 2 0.0 0.0 3.492 12.825
80 1 1 0.0 0.0 4.249 12.238
81 1 1 0.0 0.0 2.735 12.238
82 1 2 0.0 0.0 3.492 6.05
83 1 1 0.0 0.0 4.249 5.463
84 1 1 0.0 0.0 2.735 5.463
85 1 2 0.0 4.656 8.148 12.825
86 1 1 0.0 4.656 7.391 12.238
87 1 1 0.0 4.656 8.905 12.238
88 1 2 0.0 4.656 8.148 6.05
89 1 1 0.0 4.656 7.391 5.463
90 1 1 0.0 4.656 8.905 5.463
91 1 2 0.0 4.656 3.492 12.825
92 1 1 0.0 4.656 4.249 12.238
93 1 1 0.0 4.656 2.735 12.238
94 1 2 0.0 4.656 3.492 6.05
95 1 1 0.0 4.656 4.249 5.463
96 1 1 0.0 4.656 2.735 5.463
97 1 2 0.0 0.0 1.164 11.131
98 1 1 0.0 -0.757 1.164 10.545
99 1 1 0.0 0.757 1.164 10.545
100 1 2 0.0 0.0 1.164 4.356
101 1 1 0.0 -0.757 1.164 3.77
102 1 1 0.0 0.757 1.164 3.77
103 1 2 0.0 0.0 5.82 11.131
104 1 1 0.0 -0.757 5.82 10.545
105 1 1 0.0 0.757 5.82 10.545
106 1 2 0.0 0.0 5.82 4.356
107 1 1 0.0 -0.757 5.82 3.77
108 1 1 0.0 0.757 5.82 3.77
109 1 2 0.0 4.656 1.164 11.131
110 1 1 0.0 5.413 1.164 10.545
111 1 1 0.0 3.899 1.164 10.545
112 1 2 0.0 4.656 1.164 4.356
113 1 1 0.0 5.413 1.164 3.77
114 1 1 0.0 3.899 1.164 3.77
115 1 2 0.0 4.656 5.82 11.131
116 1 1 0.0 5.413 5.82 10.545
117 1 1 0.0 3.899 5.82 10.545
118 1 2 0.0 4.656 5.82 4.356
119 1 1 0.0 5.413 5.82 3.77
120 1 1 0.0 3.899 5.82 3.77
121 1 2 0.0 6.984 8.148 0.969
122 1 1 0.0 6.227 8.148 0.382
123 1 1 0.0 7.741 8.148 0.382
124 1 2 0.0 6.984 8.148 7.744
125 1 1 0.0 6.227 8.148 7.157
126 1 1 0.0 7.741 8.148 7.157
127 1 2 0.0 6.984 3.492 0.969
128 1 1 0.0 6.227 3.492 0.382
129 1 1 0.0 7.741 3.492 0.382
130 1 2 0.0 6.984 3.492 7.744
131 1 1 0.0 6.227 3.492 7.157
132 1 1 0.0 7.741 3.492 7.157
133 1 2 0.0 2.328 8.148 0.969
134 1 1 0.0 3.085 8.148 0.382
135 1 1 0.0 1.571 8.148 0.382
136 1 2 0.0 2.328 8.148 7.744
137 1 1 0.0 3.085 8.148 7.157
138 1 1 0.0 1.571 8.148 7.157
139 1 2 0.0 2.328 3.492 0.969
140 1 1 0.0 3.085 3.492 0.382
141 1 1 0.0 1.571 3.492 0.382
142 1 2 0.0 2.328 3.492 7.744
143 1 1 0.0 3.085 3.492 7.157
144 1 1 0.0 1.571 3.492 7.157
145 1 2 0.0 6.984 8.148 10.887
146 1 1 0.0 6.984 7.391 11.474
147 1 1 0.0 6.984 8.905 11.474
148 1 2 0.0 6.984 8.148 4.112
149 1 1 0.0 6.984 7.391 4.699
150 1 1 0.0 6.984 8.905 4.699
151 1 2 0.0 6.984 3.492 10.887
152 1 1 0.0 6.984 4.249 11.474
153 1 1 0.0 6.984 2.735 11.474
154 1 2 0.0 6.984 3.492 4.112
155 1 1 0.0 6.984 4.249 4.699
156 1 1 0.0 6.984 2.735 4.699
157 1 2 0.0 2.328 8.148 10.887
158 1 1 0.0 2.328 7.391 11.474
159 1 1 0.0 2.328 8.905 11.474
160 1 2 0.0 2.328 8.148 4.112
161 1 1 0.0 2.328 7.391 4.699
162 1 1 0.0 2.328 8.905 4.699
163 1 2 0.0 2.328 3.492 10.887
164 1 1 0.0 2.328 4.249 11.474
165 1 1 0.0 2.328 2.735 11.474
166 1 2 0.0 2.328 3.492 4.112
167 1 1 0.0 2.328 4.249 4.699
168 1 1 0.0 2.328 2.735 4.699
169 1 2 0.0 6.984 1.164 2.663
170 1 1 0.0 6.984 0.407 2.076
171 1 1 0.0 6.984 1.921 2.076
172 1 2 0.0 6.984 1.164 9.438
173 1 1 0.0 6.984 0.407 8.851
174 1 1 0.0 6.984 1.921 8.851
175 1 2 0.0 6.984 5.82 2.663
176 1 1 0.0 6.984 6.577 2.076
177 1 1 0.0 6.984 5.063 2.076
178 1 2 0.0 6.984 5.82 9.438
179 1 1 0.0 6.984 6.577 8.851
180 1 1 0.0 6.984 5.063 8.851
181 1 2 0.0 2.328 1.164 2.663
182 1 1 0.0 2.328 0.407 2.076
183 1 1 0.0 2.328 1.921 2.076
184 1 2 0.0 2.328 1.164 9.438
185 1 1 0.0 2.328 0.407 8.851
186 1 1 0.0 2.328 1.921 8.851
187 1 2 0.0 2.328 5.82 2.663
188 1 1 0.0 2.328 6.577 2.076
189 1 1 0.0 2.328 5.063 2.076
190 1 2 0.0 2.328 5.82 9.438
191 1 1 0.0 2.328 6.577 8.851
192 1 1 0.0 2.328 5.063 8.851
193 1 2 0.0 9.312 1.164 0.725
194 1 1 0.0 9.312 0.407 1.312
195 1 1 0.0 9.312 1.921 1.312
196 1 2 0.0 9.312 1.164 7.5
197 1 1 0.0 9.312 0.407 8.087
198 1 1 0.0 9.312 1.921 8.087
199 1 2 0.0 9.312 5.82 0.725
200 1 1 0.0 9.312 6.577 1.312
201 1 1 0.0 9.312 5.063 1.312
202 1 2 0.0 9.312 5.82 7.5
203 1 1 0.0 9.312 6.577 8.087
204 1 1 0.0 9.312 5.063 8.087
205 1 2 0.0 13.968 1.164 0.725
206 1 1 0.0 13.968 0.407 1.312
207 1 1 0.0 13.968 1.921 1.312
208 1 2 0.0 13.968 1.164 7.5
209 1 1 0.0 13.968 0.407 8.087
210 1 1 0.0 13.968 1.921 8.087
211 1 2 0.0 13.968 5.82 0.725
212 1 1 0.0 13.968 6.577 1.312
213 1 1 0.0 13.968 5.063 1.312
214 1 2 0.0 13.968 5.82 7.5
215 1 1 0.0 13.968 6.577 8.087
216 1 1 0.0 13.968 5.063 8.087
217 1 2 0.0 16.296 1.164 12.581
218 1 1 0.0 15.539 1.164 13.168
219 1 1 0.0 17.053 1.164 13.168
220 1 2 0.0 16.296 1.164 5.806
221 1 1 0.0 15.539 1.164 6.393
222 1 1 0.0 17.053 1.164 6.393
223 1 2 0.0 16.296 5.82 12.581
224 1 1 0.0 15.539 5.82 13.168
225 1 1 0.0 17.053 5.82 13.168
226 1 2 0.0 16.296 5.82 5.806
227 1 1 0.0 15.539 5.82 6.393
228 1 1 0.0 17.053 5.82 6.393
229 1 2 0.0 11.64 1.164 12.581
230 1 1 0.0 12.397 1.164 13.168
231 1 1 0.0 10.883 1.164 13.168
232 1 2 0.0 11.64 1.164 5.806
233 1 1 0.0 12.397 1.164 6.393
234 1 1 0.0 10.883 1.164 6.393
235 1 2 0.0 11.64 5.82 12.581
236 1 1 0.0 12.397 5.82 13.168
237 1 1 0.0 10.883 5.82 13.168
238 1 2 0.0 11.64 5.82 5.806
239 1 1 0.0 12.397 5.82 6.393
240 1 1 0.0 10.883 5.82 6.393
241 1 2 0.0 9.312 8.148 2.419
242 1 1 0.0 8.555 8.148 3.005
243 1 1 0.0 10.069 8.148 3.005
244 1 2 0.0 9.312 8.148 9.194
245 1 1 0.0 8.555 8.148 9.78
246 1 1 0.0 10.069 8.148 9.78
247 1 2 0.0 9.312 3.492 2.419
248 1 1 0.0 8.555 3.492 3.005
249 1 1 0.0 10.069 3.492 3.005
250 1 2 0.0 9.312 3.492 9.194
251 1 1 0.0 8.555 3.492 9.78
252 1 1 0.0 10.069 3.492 9.78
253 1 2 0.0 13.968 8.148 2.419
254 1 1 0.0 14.725 8.148 3.005
255 1 1 0.0 13.211 8.148 3.005
256 1 2 0.0 13.968 8.148 9.194
257 1 1 0.0 14.725 8.148 9.78
258 1 1 0.0 13.211 8.148 9.78
259 1 2 0.0 13.968 3.492 2.419
260 1 1 0.0 14.725 3.492 3.005
261 1 1 0.0 13.211 3.492 3.005
262 1 2 0.0 13.968 3.492 9.194
263 1 1 0.0 14.725 3.492 9.78
264 1 1 0.0 13.211 3.492 9.78
265 1 2 0.0 9.312 8.148 12.825
266 1 1 0.0 9.312 7.391 12.238
267 1 1 0.0 9.312 8.905 12.238
268 1 2 0.0 9.312 8.148 6.05
269 1 1 0.0 9.312 7.391 5.463
270 1 1 0.0 9.312 8.905 5.463
271 1 2 0.0 9.312 3.492 12.825
272 1 1 0.0 9.312 4.249 12.238
273 1 1 0.0 9.312 2.735 12.238
274 1 2 0.0 9.312 3.492 6.05
275 1 1 0.0 9.312 4.249 5.463
276 1 1 0.0 9.312 2.735 5.463
277 1 2 0.0 13.968 8.148 12.825
278 1 1 0.0 13.968 7.391 12.238
279 1 1 0.0 13.968 8.905 12.238
280 1 2 0.0 13.968 8.148 6.05
281 1 1 0.0 13.968 7.391 5.463
282 1 1 0.0 13.968 8.905 5.463
283 1 2 0.0 13.968 3.492 12.825
284 1 1 0.0 13.968 4.249 12.238
285 1 1 0.0 13.968 2.735 12.238
286 1 2 0.0 13.968 3.492 6.05
287 1 1 0.0 13.968 4.249 5.463
288 1 1 0.0 13.968 2.735 5.463
289 1 2 0.0 9.312 1.164 11.131
290 1 1 0.0 8.555 1.164 10.545
291 1 1 0.0 10.069 1.164 10.545
292 1 2 0.0 9.312 1.164 4.356
293 1 1 0.0 8.555 1.164 3.77
294 1 1 0.0 10.069 1.164 3.77
295 1 2 0.0 9.312 5.82 11.131
296 1 1 0.0 8.555 5.82 10.545
297 1 1 0.0 10.069 5.82 10.545
298 1 2 0.0 9.312 5.82 4.356
299 1 1 0.0 8.555 5.82 3.77
300 1 1 0.0 10.069 5.82 3.77
301 1 2 0.0 13.968 1.164 11.131
302 1 1 0.0 14.725 1.164 10.545
303 1 1 0.0 13.211 1.164 10.545
304 1 2 0.0 13.968 1.164 4.356
305 1 1 0.0 14.725 1.164 3.77
306 1 1 0.0 13.211 1.164 3.77
307 1 2 0.0 13.968 5.82 11.131
308 1 1 0.0 14.725 5.82 10.545
309 1 1 0.0 13.211 5.82 10.545
310 1 2 0.0 13.968 5.82 4.356
311 1 1 0.0 14.725 5.82 3.77
312 1 1 0.0 13.211 5.82 3.77
313 1 2 0.0 16.296 8.148 0.969
314 1 1 0.0 15.539 8.148 0.382
315 1 1 0.0 17.053 8.148 0.382
316 1 2 0.0 16.296 8.148 7.744
317 1 1 0.0 15.539 8.148 7.157
318 1 1 0.0 17.053 8.148 7.157
319 1 2 0.0 16.296 3.492 0.969
320 1 1 0.0 15.539 3.492 0.382
321 1 1 0.0 17.053 3.492 0.382
322 1 2 0.0 16.296 3.492 7.744
323 1 1 0.0 15.539 3.492 7.157
324 1 1 0.0 17.053 3.492 7.157
325 1 2 0.0 11.64 8.148 0.969
326 1 1 0.0 12.397 8.148 0.382
327 1 1 0.0 10.883 8.148 0.382
328 1 2 0.0 11.64 8.148 7.744
329 1 1 0.0 12.397 8.148 7.157
330 1 1 0.0 10.883 8.148 7.157
331 1 2 0.0 11.64 3.492 0.969
332 1 1 0.0 12.397 3.492 0.382
333 1 1 0.0 10.883 3.492 0.382
334 1 2 0.0 11.64 3.492 7.744
335 1 1 0.0 12.397 3.492 7.157
336 1 1 0.0 10.883 3.492 7.157
337 1 2 0.0 16.296 8.148 10.887
338 1 1 0.0 16.296 7.391 11.474
339 1 1 0.0 16.296 8.905 11.474
340 1 2 0.0 16.296 8.148 4.112
341 1 1 0.0 16.296 7.391 4.699
342 1 1 0.0 16.296 8.905 4.699
343 1 2 0.0 16.296 3.492 10.887
344 1 1 0.0 16.296 4.249 11.474
345 1 1 0.0 16.296 2.735 11.474
346 1 2 0.0 16.296 3.492 4.112
347 1 1 0.0 16.296 4.249 4.699
348 1 1 0.0 16.296 2.735 4.699
349 1 2 0.0 11.64 8.148 10.887
350 1 1 0.0 11.64 7.391 11.474
351 1 1 0.0 11.64 8.905 11.474
352 1 2 0.0 11.64 8.148 4.112
353 1 1 0.0 11.64 7.391 4.699
354 1 1 0.0 11.64 8.905 4.699
355 1 2 0.0 11.64 3.492 10.887
356 1 1 0.0 11.64 4.249 11.474
357 1 1 0.0 11.64 2.735 11.474
358 1 2 0.0 11.64 3.492 4.112
359 1 1 0.0 11.64 4.249 4.699
360 1 1 0.0 11.64 2.735 4.699
361 1 2 0.0 16.296 1.164 2.663
362 1 1 0.0 16.296 0.407 2.076
363 1 1 0.0 16.296 1.921 2.076
364 1 2 0.0 16.296 1.164 9.438
365 1 1 0.0 16.296 0.407 8.851
366 1 1 0.0 16.296 1.921 8.851
367 1 2 0.0 16.296 5.82 2.663
368 1 1 0.0 16.296 6.577 2.076
369 1 1 0.0 16.296 5.063 2.076
370 1 2 0.0 16.296 5.82 9.438
371 1 1 0.0 16.296 6.577 8.851
372 1 1 0.0 16.296 5.063 8.851
373 1 2 0.0 11.64 1.164 2.663
374 1 1 0.0 11.64 0.407 2.076
375 1 1 0.0 11.64 1.921 2.076
376 1 2 0.0 11.64 1.164 9.438
377 1 1 0.0 11.64 0.407 8.851
378 1 1 0.0 11.64 1.921 8.851
379 1 2 0.0 11.64 5.82 2.663
380 1 1 0.0 11.64 6.577 2.076
381 1 1 0.0 11.64 5.063 2.076
382 1 2 0.0 11.64 5.82 9.438
383 1 1 0.0 11.64 6.577 8.851
384 1 1 0.0 11.64 5.063 8.851
385 1 2 0.0 0.0 10.476 0.725
386 1 1 0.0 0.0 9.719 1.312
387 1 1 0.0 0.0 11.233 1.312
388 1 2 0.0 0.0 10.476 7.5
389 1 1 0.0 0.0 9.719 8.087
390 1 1 0.0 0.0 11.233 8.087
391 1 2 0.0 0.0 15.132 0.725
392 1 1 0.0 0.0 15.889 1.312
393 1 1 0.0 0.0 14.375 1.312
394 1 2 0.0 0.0 15.132 7.5
395 1 1 0.0 0.0 15.889 8.087
396 1 1 0.0 0.0 14.375 8.087
397 1 2 0.0 4.656 10.476 0.725
398 1 1 0.0 4.656 9.719 1.312
399 1 1 0.0 4.656 11.233 1.312
400 1 2 0.0 4.656 10.476 7.5
401 1 1 0.0 4.656 9.719 8.087
402 1 1 0.0 4.656 11.233 8.087
403 1 2 0.0 4.656 15.132 0.725
404 1 1 0.0 4.656 15.889 1.312
405 1 1 0.0 4.656 14.375 1.312
406 1 2 0.0 4.656 15.132 7.5
407 1 1 0.0 4.656 15.889 8.087
408 1 1 0.0 4.656 14.375 8.087
409 1 2 0.0 6.984 10.476 12.581
410 1 1 0.0 6.227 10.476 13.168
411 1 1 0.0 7.741 10.476 13.168
412 1 2 0.0 6.984 10.476 5.806
413 1 1 0.0 6.227 10.476 6.393
414 1 1 0.0 7.741 10.476 6.393
415 1 2 0.0 6.984 15.132 12.581
416 1 1 0.0 6.227 15.132 13.168
417 1 1 0.0 7.741 15.132 13.168
418 1 2 0.0 6.984 15.132 5.806
419 1 1 0.0 6.227 15.132 6.393
420 1 1 0.0 7.741 15.132 6.393
421 1 2 0.0 2.328 10.476 12.581
422 1 1 0.0 3.085 10.476 13.168
423 1 1 0.0 1.571 10.476 13.168
424 1 2 0.0 2.328 10.476 5.806
425 1 1 0.0 3.085 10.476 6.393
426 1 1 0.0 1.571 10.476 6.393
427 1 2 0.0 2.328 15.132 12.581
428 1 1 0.0 3.085 15.132 13.168
429 1 1 0.0 1.571 15.132 13.168
430 1 2 0.0 2.328 15.132 5.806
431 1 1 0.0 3.085 15.132 6.393
432 1 1 0.0 1.571 15.132 6.393
433 1 2 0.0 0.0 17.46 2.419
434 1 1 0.0 -0.757 17.46 3.005
435 1 1 0.0 0.757 17.46 3.005
436 1 2 0.0 0.0 17.46 9.194
437 1 1 0.0 -0.757 17.46 9.78
438 1 1 0.0 0.757 17.46 9.78
439 1 2 0.0 0.0 12.804 2.419
440 1 1 0.0 -0.757 12.804 3.005
441 1 1 0.0 0.757 12.804 3.005
442 1 2 0.0 0.0 12.804 9.194
443 1 1 0.0 -0.757 12.804 9.78
444 1 1 0.0 0.757 12.804 9.78
445 1 2 0.0 4.656 17.46 2.419
446 1 1 0.0 5.413 17.46 3.005
447 1 1 0.0 3.899 17.46 3.005
448 1 2 0.0 4.656 17.46 9.194
449 1 1 0.0 5.413 17.46 9.78
450 1 1 0.0 3.899 17.46 9.78
451 1 2 0.0 4.656 12.804 2.419
452 1 1 0.0 5.413 12.804 3.005
453 1 1 0.0 3.899 12.804 3.005
454 1 2 0.0 4.656 12.804 9.194
455 1 1 0.0 5.413 12.804 9.78
456 1 1 0.0 3.899 12.804 9.78
457 1 2 0.0 0.0 17.46 12.825
458 1 1 0.0 0.0 16.703 12.238
459 1 1 0.0 0.0 18.217 12.238
460 1 2 0.0 0.0 17.46 6.05
461 1 1 0.0 0.0 16.703 5.463
462 1 1 0.0 0.0 18.217 5.463
463 1 2 0.0 0.0 12.804 12.825
464 1 1 0.0 0.0 13.561 12.238
465 1 1 0.0 0.0 12.047 12.238
466 1 2 0.0 0.0 12.804 6.05
467 1 1 0.0 0.0 13.561 5.463
468 1 1 0.0 0.0 12.047 5.463
469 1 2 0.0 4.656 17.46 12.825
470 1 1 0.0 4.656 16.703 12.238
471 1 1 0.0 4.656 18.217 12.238
472 1 2 0.0 4.656 17.46 6.05
473 1 1 0.0 4.656 16.703 5.463
474 1 1 0.0 4.656 18.217 5.463
475 1 2 0.0 4.656 12.804 12.825
476 1 1 0.0 4.656 13.561 12.238
477 1 1 0.0 4.656 12.047 12.238
478 1 2 0.0 4.656 12.804 6.05
479 1 1 0.0 4.656 13.561 5.463
480 1 1 0.0 4.656 12.047 5.463
481 1 2 0.0 0.0 10.476 11.131
482 1 1 0.0 -0.757 10.476 10.545
483 1 1 0.0 0.757 10.476 10.545
484 1 2 0.0 0.0 10.476 4.356
485 1 1 0.0 -0.757 10.476 3.77
486 1 1 0.0 0.757 10.476 3.77
487 1 2 0.0 0.0 15.132 11.131
488 1 1 0.0 -0.757 15.132 10.545
489 1 1 0.0 0.757 15.132 10.545
490 1 2 0.0 0.0 15.132 4.356
491 1 1 0.0 -0.757 15.132 3.77
492 1 1 0.0 0.757 15.132 3.77
493 1 2 0.0 4.656 10.476 11.131
494 1 1 0.0 5.413 10.476 10.545
495 1 1 0.0 3.899 10.476 10.545
496 1 2 0.0 4.656 10.476 4.356
497 1 1 0.0 5.413 10.476 3.77
498 1 1 0.0 3.899 10.476 3.77
499 1 2 0.0 4.656 15.132 11.131
500 1 1 0.0 5.413 15.132 10.545
501 1 1 0.0 3.899 15.132 10.545
502 1 2 0.0 4.656 15.132 4.356
503 1 1 0.0 5.413 15.132 3.77
504 1 1 0.0 3.899 15.132 3.77
505 1 2 0.0 6.984 17.46 0.969
506 1 1 0.0 6.227 17.46 0.382
507 1 1 0.0 7.741 17.46 0.382
508 1 2 0.0 6.984 17.46 7.744
509 1 1 0.0 6.227 17.46 7.157
510 1 1 0.0 7.741 17.46 7.157
511 1 2 0.0 6.984 12.804 0.969
512 1 1 0.0 6.227 12.804 0.382
513 1 1 0.0 7.741 12.804 0.382
514 1 2 0.0 6.984 12.804 7.744
515 1 1 0.0 6.227 12.804 7.157
516 1 1 0.0 7.741 12.804 7.157
517 1 2 0.0 2.328 17.46 0.969
518 1 1 0.0 3.085 17.46 0.382
519 1 1 0.0 1.571 17.46 0.382
520 1 2 0.0 2.328 17.46 7.744
521 1 1 0.0 3.085 17.46 7.157
522 1 1 0.0 1.571 17.46 7.157
523 1 2 0.0 2.328 12.804 0.969
524 1 1 0.0 3.085 12.804 0.382
525 1 1 0.0 1.571 12.804 0.382
526 1 2 0.0 2.328 12.804 7.744
527 1 1 0.0 3.085 12.804 7.157
528 1 1 0.0 1.571 12.804 7.157
529 1 2 0.0 6.984 17.46 10.887
530 1 1 0.0 6.984 16.703 11.474
531 1 1 0.0 6.984 18.217 11.474
532 1 2 0.0 6.984 17.46 4.112
533 1 1 0.0 6.984 16.703 4.699
534 1 1 0.0 6.984 18.217 4.699
535 1 2 0.0 6.984 12.804 10.887
536 1 1 0.0 6.984 13.561 11.474
537 1 1 0.0 6.984 12.047 11.474
538 1 2 0.0 6.984 12.804 4.112
539 1 1 0.0 6.984 13.561 4.699
540 1 1 0.0 6.984 12.047 4.699
541 1 2 0.0 2.328 17.46 10.887
542 1 1 0.0 2.328 16.703 11.474
543 1 1 0.0 2.328 18.217 11.474
544 1 2 0.0 2.328 17.46 4.112
545 1 1 0.0 2.328 16.703 4.699
546 1 1 0.0 2.328 18.217 4.699
547 1 2 0.0 2.328 12.804 10.887
548 1 1 0.0 2.328 13.561 11.474
549 1 1 0.0 2.328 12.047 11.474
550 1 2 0.0 2.328 12.804 4.112
551 1 1 0.0 2.328 13.561 4.699
552 1 1 0.0 2.328 12.047 4.699
553 1 2 0.0 6.984 10.476 2.663
554 1 1 0.0 6.984 9.719 2.076
555 1 1 0.0 6.984 11.233 2.076
556 1 2 0.0 6.984 10.476 9.438
557 1 1 0.0 6.984 9.719 8.851
558 1 1 0.0 6.984 11.233 8.851
559 1 2 0.0 6.984 15.132 2.663
560 1 1 0.0 6.984 15.889 2.076
561 1 1 0.0 6.984 14.375 2.076
562 1 2 0.0 6.984 15.132 9.438
563 1 1 0.0 6.984 15.889 8.851
564 1 1 0.0 6.984 14.375 8.851
565 1 2 0.0 2.328 10.476 2.663
566 1 1 0.0 2.328 9.719 2.076
567 1 1 0.0 2.328 11.233 2.076
568 1 2 0.0 2.328 10.476 9.438
569 1 1 0.0 2.328 9.719 8.851
570 1 1 0.0 2.328 11.233 8.851
571 1 2 0.0 2.328 15.132 2.663
572 1 1 0.0 2.328 15.889 2.076
573 1 1 0.0 2.328 14.375 2.076
574 1 2 0.0 2.328 15.132 9.438
575 1 1 0.0 2.328 15.889 8.851
576 1 1 0.0 2.328 14.375 8.851
577 1 2 0.0 9.312 10.476 0.725
578 1 1 0.0 9.312 9.719 1.312
579 1 1 0.0 9.312 11.233 1.312
580 1 2 0.0 9.312 10.476 7.5
581 1 1 0.0 9.312 9.719 8.087
582 1 1 0.0 9.312 11.233 8.087
583 1 2 0.0 9.312 15.132 0.725
584 1 1 0.0 9.312 15.889 1.312
585 1 1 0.0 9.312 14.375 1.312
586 1 2 0.0 9.312 15.132 7.5
587 1 1 0.0 9.312 15.889 8.087
588 1 1 0.0 9.312 14.375 8.087
589 1 2 0.0 13.968 10.476 0.725
590 1 1 0.0 13.968 9.719 1.312
591 1 1 0.0 13.968 11.233 1.312
592 1 2 0.0 13.968 10.476 7.5
593 1 1 0.0 13.968 9.719 8.087
594 1 1 0.0 13.968 11.233 8.087
595 1 2 0.0 13.968 15.132 0.725
596 1 1 0.0 13.968 15.889 1.312
597 1 1 0.0 13.968 14.375 1.312
598 1 2 0.0 13.968 15.132 7.5
599 1 1 0.0 13.968 15.889 8.087
600 1 1 0.0 13.968 14.375 8.087
601 1 2 0.0 16.296 10.476 12.581
602 1 1 0.0 15.539 10.476 13.168
603 1 1 0.0 17.053 10.476 13.168
604 1 2 0.0 16.296 10.476 5.806
605 1 1 0.0 15.539 10.476 6.393
606 1 1 0.0 17.053 10.476 6.393
607 1 2 0.0 16.296 15.132 12.581
608 1 1 0.0 15.539 15.132 13.168
609 1 1 0.0 17.053 15.132 13.168
610 1 2 0.0 16.296 15.132 5.806
611 1 1 0.0 15.539 15.132 6.393
612 1 1 0.0 17.053 15.132 6.393
613 1 2 0.0 11.64 10.476 12.581
614 1 1 0.0 12.397 10.476 13.168
615 1 1 0.0 10.883 10.476 13.168
616 1 2 0.0 11.64 10.476 5.806
617 1 1 0.0 12.397 10.476 6.393
618 1 1 0.0 10.883 10.476 6.393
619 1 2 0.0 11.64 15.132 12.581
620 1 1 0.0 12.397 15.132 13.168
621 1 1 0.0 10.883 15.132 13.168
622 1 2 0.0 11.64 15.132 5.806
623 1 1 0.0 12.397 15.132 6.393
624 1 1 0.0 10.883 15.132 6.393
625 1 2 0.0 9.312 17.46 2.419
626 1 1 0.0 8.555 17.46 3.005
627 1 1 0.0 10.069 17.46 3.005
628 1 2 0.0 9.312 17.46 9.194
629 1 1 0.0 8.555 17.46 9.78
630 1 1 0.0 10.069 17.46 9.78
631 1 2 0.0 9.312 12.804 2.419
632 1 1 0.0 8.555 12.804 3.005
633 1 1 0.0 10.069 12.804 3.005
634 1 2 0.0 9.312 12.804 9.194
635 1 1 0.0 8.555 12.804 9.78
636 1 1 0.0 10.069 12.804 9.78
637 1 2 0.0 13.968 17.46 2.419
638 1 1 0.0 14.725 17.46 3.005
639 1 1 0.0 13.211 17.46 3.005
640 1 2 0.0 13.968 17.46 9.194
641 1 1 0.0 14.725 17.46 9.78
642 1 1 0.0 13.211 17.46 9.78
643 1 2 0.0 13.968 12.804 2.419
644 1 1 0.0 14.725 12.804 3.005
645 1 1 0.0 13.211 12.804 3.005
646 1 2 0.0 13.968 12.804 9.194
647 1 1 0.0 14.725 12.804 9.78
648 1 1 0.0 13.211 12.804 9.78
649 1 2 0.0 9.312 17.46 12.825
650 1 1 0.0 9.312 16.703 12.238
651 1 1 0.0 9.312 18.217 12.238
652 1 2 0.0 9.312 17.46 6.05
653 1 1 0.0 9.312 16.703 5.463
654 1 1 0.0 9.312 18.217 5.463
655 1 2 0.0 9.312 12.804 12.825
656 1 1 0.0 9.312 13.561 12.238
657 1 1 0.0 9.312 12.047 12.238
658 1 2 0.0 9.312 12.804 6.05
659 1 1 0.0 9.312 13.561 5.463
660 1 1 0.0 9.312 12.047 5.463
661 1 2 0.0 13.968 17.46 12.825
662 1 1 0.0 13.968 16.703 12.238
663 1 1 0.0 13.968 18.217 12.238
664 1 2 0.0 13.968 17.46 6.05
665 1 1 0.0 13.968 16.703 5.463
666 1 1 0.0 13.968 18.217 5.463
667 1 2 0.0 13.968 12.804 12.825
668 1 1 0.0 13.968 13.561 12.238
669 1 1 0.0 13.968 12.047 12.238
670 1 2 0.0 13.968 12.804 6.05
671 1 1 0.0 13.968 13.561 5.463
672 1 1 0.0 13.968 12.047 5.463
673 1 2 0.0 9.312 10.476 11.131
674 1 1 0.0 8.555 10.476 10.545
675 1 1 0.0 10.069 10.476 10.545
676 1 2 0.0 9.312 10.476 4.356
677 1 1 0.0 8.555 10.476 3.77
678 1 1 0.0 10.069 10.476 3.77
679 1 2 0.0 9.312 15.132 11.131
680 1 1 0.0 8.555 15.132 10.545
681 1 1 0.0 10.069 15.132 10.545
682 1 2 0.0 9.312 15.132 4.356
683 1 1 0.0 8.555 15.132 3.77
684 1 1 0.0 10.069 15.132 3.77
685 1 2 0.0 13.968 10.476 11.131
686 1 1 0.0 14.725 10.476 10.545
687 1 1 0.0 13.211 10.476 10.545
688 1 2 0.0 13.968 10.476 4.356
689 1 1 0.0 14.725 10.476 3.77
690 1 1 0.0 13.211 10.476 3.77
691 1 2 0.0 13.968 15.132 11.131
692 1 1 0.0 14.725 15.132 10.545
693 1 1 0.0 13.211 15.132 10.545
694 1 2 0.0 13.968 15.132 4.356
695 1 1 0.0 14.725 15.132 3.77
696 1 1 0.0 13.211 15.132 3.77
697 1 2 0.0 16.296 17.46 0.969
698 1 1 0.0 15.539 17.46 0.382
699 1 1 0.0 17.053 17.46 0.382
700 1 2 0.0 16.296 17.46 7.744
701 1 1 0.0 15.539 17.46 7.157
702 1 1 0.0 17.053 17.46 7.157
703 1 2 0.0 16.296 12.804 0.969
704 1 1 0.0 15.539 12.804 0.382
705 1 1 0.0 17.053 12.804 0.382
706 1 2 0.0 16.296 12.804 7.744
707 1 1 0.0 15.539 12.804 7.157
708 1 1 0.0 17.053 12.804 7.157
709 1 2 0.0 11.64 17.46 0.969
710 1 1 0.0 12.397 17.46 0.382
711 1 1 0.0 10.883 17.46 0.382
712 1 2 0.0 11.64 17.46 7.744
713 1 1 0.0 12.397 17.46 7.157
714 1 1 0.0 10.883 17.46 7.157
715 1 2 0.0 11.64 12.804 0.969
716 1 1 0.0 12.397 12.804 0.382
717 1 1 0.0 10.883 12.804 0.382
718 1 2 0.0 11.64 12.804 7.744
719 1 1 0.0 12.397 12.804 7.157
720 1 1 0.0 10.883 12.804 7.157
721 1 2 0.0 16.296 17.46 10.887
722 1 1 0.0 16.296 16.703 11.474
723 1 1 0.0 16.296 18.217 11.474
724 1 2 0.0 16.296 17.46 4.112
725 1 1 0.0 16.296 16.703 4.699
726 1 1 0.0 16.296 18.217 4.699
727 1 2 0.0 16.296 12.804 10.887
728 1 1 0.0 16.296 13.561 11.474
729 1 1 0.0 16.296 12.047 11.474
730 1 2 0.0 16.296 12.804 4.112
731 1 1 0.0 16.296 13.561 4.699
732 1 1 0.0 16.296 12.047 4.699
733 1 2 0.0 11.64 17.46 10.887
734 1 1 0.0 11.64 16.703 11.474
735 1 1 0.0 11.64 18.217 11.474
736 1 2 0.0 11.64 17.46 4.112
737 1 1 0.0 11.64 16.703 4.699
738 1 1 0.0 11.64 18.217 4.699
739 1 2 0.0 11.64 12.804 10.887
740 1 1 0.0 11.64 13.561 11.474
741 1 1 0.0 11.64 12.047 11.474
742 1 2 0.0 11.64 12.804 4.112
743 1 1 0.0 11.64 13.561 4.699
744 1 1 0.0 11.64 12.047 4.699
745 1 2 0.0 16.296 10.476 2.663
746 1 1 0.0 16.296 9.719 2.076
747 1 1 0.0 16.296 11.233 2.076
748 1 2 0.0 16.296 10.476 9.438
749 1 1 0.0 16.296 9.719 8.851
750 1 1 0.0 16.296 11.233 8.851
751 1 2 0.0 16.296 15.132 2.663
752 1 1 0.0 16.296 15.889 2.076
753 1 1 0.0 16.296 14.375 2.076
754 1 2 0.0 16.296 15.132 9.438
755 1 1 0.0 16.296 15.889 8.851
756 1 1 0.0 16.296 14.375 8.851
757 1 2 0.0 11.64 10.476 2.663
758 1 1 0.0 11.64 9.719 2.076
759 1 1 0.0 11.64 11.233 2.076
760 1 2 0.0 11.64 10.476 9.438
761 1 1 0.0 11.64 9.719 8.851
762 1 1 0.0 11.64 11.233 8.851
763 1 2 0.0 11.64 15.132 2.663
764 1 1 0.0 11.64 15.889 2.076
765 1 1 0.0 11.64 14.375 2.076
766 1 2 0.0 11.64 15.132 9.438
767 1 1 0.0 11.64 15.889 8.851
768 1 1 0.0 11.64 14.375 8.851
769 1 2 0.0 0.0 1.164 14.275
770 1 1 0.0 0.0 0.407 14.862
771 1 1 0.0 0.0 1.921 14.862
772 1 2 0.0 0.0 1.164 21.05
773 1 1 0.0 0.0 0.407 21.637
774 1 1 0.0 0.0 1.921 21.637
775 1 2 0.0 0.0 5.82 14.275
776 1 1 0.0 0.0 6.577 14.862
777 1 1 0.0 0.0 5.063 14.862
778 1 2 0.0 0.0 5.82 21.05
779 1 1 0.0 0.0 6.577 21.637
780 1 1 0.0 0.0 5.063 21.637
781 1 2 0.0 4.656 1.164 14.275
782 1 1 0.0 4.656 0.407 14.862
783 1 1 0.0 4.656 1.921 14.862
784 1 2 0.0 4.656 1.164 21.05
785 1 1 0.0 4.656 0.407 21.637
786 1 1 0.0 4.656 1.921 21.637
787 1 2 0.0 4.656 5.82 14.275
788 1 1 0.0 4.656 6.577 14.862
789 1 1 0.0 4.656 5.063 14.862
790 1 2 0.0 4.656 5.82 21.05
791 1 1 0.0 4.656 6.577 21.637
792 1 1 0.0 4.656 5.063 21.637
793 1 2 0.0 6.984 1.164 26.131
794 1 1 0.0 6.227 1.164 26.718
795 1 1 0.0 7.741 1.164 26.718
796 1 2 0.0 6.984 1.164 19.356
797 1 1 0.0 6.227 1.164 19.943
798 1 1 0.0 7.741 1.164 19.943
799 1 2 0.0 6.984 5.82 26.131
800 1 1 0.0 6.227 5.82 26.718
801 1 1 0.0 7.741 5.82 26.718
802 1 2 0.0 6.984 5.82 19.356
803 1 1 0.0 6.227 5.82 19.943
804 1 1 0.0 7.741 5.82 19.943
805 1 2 0.0 2.328 1.164 26.131
806 1 1 0.0 3.085 1.164 26.718
807 1 1 0.0 1.571 1.164 26.718
808 1 2 0.0 2.328 1.164 19.356
809 1 1 0.0 3.085 1.164 19.943
810 1 1 0.0 1.571 1.164 19.943
811 1 2 0.0 2.328 5.82 26.131
812 1 1 0.0 3.085 5.82 26.718
813 1 1 0.0 1.571 5.82 26.718
814 1 2 0.0 2.328 5.82 19.356
815 1 1 0.0 3.085 5.82 19.943
816 1 1 0.0 1.571 5.82 19.943
817 1 2 0.0 0.0 8.148 15.969
818 1 1 0.0 -0.757 8.148 16.555
819 1 1 0.0 0.757 8.148 16.555
820 1 2 0.0 0.0 8.148 22.744
821 1 1 0.0 -0.757 8.148 23.33
822 1 1 0.0 0.757 8.148 23.33
823 1 2 0.0 0.0 3.492 15.969
824 1 1 0.0 -0.757 3.492 16.555
825 1 1 0.0 0.757 3.492 16.555
826 1 2 0.0 0.0 3.492 22.744
827 1 1 0.0 -0.757 3.492 23.33
828 1 1 0.0 0.757 3.492 23.33
829 1 2 0.0 4.656 8.148 15.969
830 1 1 0.0 5.413 8.148 16.555
831 1 1 0.0 3.899 8.148 16.555
832 1 2 0.0 4.656 8.148 22.744
833 1 1 0.0 5.413 8.148 23.33
834 1 1 0.0 3.899 8.148 23.33
835 1 2 0.0 4.656 3.492 15.969
836 1 1 0.0 5.413 3.492 16.555
837 1 1 0.0 3.899 3.492 16.555
838 1 2 0.0 4.656 3.492 22.744
839 1 1 0.0 5.413 3.492 23.33
840 1 1 0.0 3.899 3.492 23.33
841 1 2 0.0 0.0 8.148 26.375
842 1 1 0.0 0.0 7.391 25.788
843 1 1 0.0 0.0 8.905 25.788
844 1 2 0.0 0.0 8.148 19.6
845 1 1 0.0 0.0 7.391 19.013
846 1 1 0.0 0.0 8.905 19.013
847 1 2 0.0 0.0 3.492 26.375
848 1 1 0.0 0.0 4.249 25.788
849 1 1 0.0 0.0 2.735 25.788
850 1 2 0.0 0.0 3.492 19.6
851 1 1 0.0 0.0 4.249 19.013
852 1 1 0.0 0.0 2.735 19.013
853 1 2 0.0 4.656 8.148 26.375
854 1 1 0.0 4.656 7.391 25.788
855 1 1 0.0 4.656 8.905 25.788
856 1 2 0.0 4.656 8.148 19.6
857 1 1 0.0 4.656 7.391 19.013
858 1 1 0.0 4.656 8.905 19.013
859 1 2 0.0 4.656 3.492 26.375
860 1 1 0.0 4.656 4.249 25.788
861 1 1 0.0 4.656 2.735 25.788
862 1 2 0.0 4.656 3.492 19.6
863 1 1 0.0 4.656 4.249 19.013
864 1 1 0.0 4.656 2.735 19.013
865 1 2 0.0 0.0 1.164 24.681
866 1 1 0.0 -0.757 1.164 24.095
867 1 1 0.0 0.757 1.164 24.095
868 1 2 0.0 0.0 1.164 17.906
869 1 1 0.0 -0.757 1.164 17.32
870 1 1 0.0 0.757 1.164 17.32
871 1 2 0.0 0.0 5.82 24.681
872 1 1 0.0 -0.757 5.82 24.095
873 1 1 0.0 0.757 5.82 24.095
874 1 2 0.0 0.0 5.82 17.906
875 1 1 0.0 -0.757 5.82 17.32
876 1 1 0.0 0.757 5.82 17.32
877 1 2 0.0 4.656 1.164 24.681
878 1 1 0.0 5.413 1.164 24.095
879 1 1 0.0 3.899 1.164 24.095
880 1 2 0.0 4.656 1.164 17.906
881 1 1 0.0 5.413 1.164 17.32
882 1 1 0.0 3.899 1.164 17.32
883 1 2 0.0 4.656 5.82 24.681
884 1 1 0.0 5.413 5.82 24.095
885 1 1 0.0 3.899 5.82 24.095
886 1 2 0.0 4.656 5.82 17.906
887 1 1 0.0 5.413 5.82 17.32
888 1 1 0.0 3.899 5.82 17.32
889 1 2 0.0 6.984 8.148 14.519
890 1 1 0.0 6.227 8.148 13.932
891 1 1 0.0 7.741 8.148 13.932
892 1 2 0.0 6.984 8.148 21.294
893 1 1 0.0 6.227 8.148 20.707
894 1 1 0.0 7.741 8.148 20.707
895 1 2 0.0 6.984 3.492 14.519
896 1 1 0.0 6.227 3.492 13.932
897 1 1 0.0 7.741 3.492 13.932
898 1 2 0.0 6.984 3.492 21.294
899 1 1 0.0 6.227 3.492 20.707
900 1 1 0.0 7.741 3.492 20.707
901 1 2 0.0 2.328 8.148 14.519
902 1 1 0.0 3.085 8.148 13.932
903 1 1 0.0 1.571 8.148 13.932
904 1 2 0.0 2.328 8.148 21.294
905 1 1 0.0 3.085 8.148 20.707
906 1 1 0.0 1.571 8.148 20.707
907 1 2 0.0 2.328 3.492 14.519
908 1 1 0.0 3.085 3.492 13.932
909 1 1 0.0 1.571 3.492 13.932
910 1 2 0.0 2.328 3.492 21.294
911 1 1 0.0 3.085 3.492 20.707
912 1 1 0.0 1.571 3.492 20.707
913 1 2 0.0 6.984 8.148 24.437
914 1 1 0.0 6.984 7.391 25.024
915 1 1 0.0 6.984 8.905 25.024
916 1 2 0.0 6.984 8.148 17.662
917 1 1 0.0 6.984 7.391 18.249
918 1 1 0.0 6.984 8.905 18.249
919 1 2 0.0 6.984 3.492 24.437
920 1 1 0.0 6.984 4.249 25.024
921 1 1 0.0 6.984 2.735 25.024
922 1 2 0.0 6.984 3.492 17.662
923 1 1 0.0 6.984 4.249 18.249
924 1 1 0.0 6.984 2.735 18.249
925 1 2 0.0 2.328 8.148 24.437
926 1 1 0.0 2.328 7.391 25.024
927 1 1 0.0 2.328 8.905 25.024
928 1 2 0.0 2.328 8.148 17.662
929 1 1 0.0 2.328 7.391 18.249
930 1 1 0.0 2.328 8.905 18.249
931 1 2 0.0 2.328 3.492 24.437
932 1 1 0.0 2.328 4.249 25.024
933 1 1 0.0 2.328 2.735 25.024
934 1 2 0.0 2.328 3.492 17.662
935 1 1 0.0 2.328 4.249 18.249
936 1 1 0.0 2.328 2.735 18.249
937 1 2 0.0 6.984 1.164 16.213
938 1 1 0.0 6.984 0.407 15.626
939 1 1 0.0 6.984 1.921 15.626
940 1 2 0.0 6.984 1.164 22.988
941 1 1 0.0 6.984 0.407 22.401
942 1 1 0.0 6.984 1.921 22.401
943 1 2 0.0 6.984 5.82 16.213
944 1 1 0.0 6.984 6.577 15.626
945 1 1 0.0 6.984 5.063 15.626
946 1 2 0.0 6.984 5.82 22.988
947 1 1 0.0 6.984 6.577 22.401
948 1 1 0.0 6.984 5.063 22.401
949 1 2 0.0 2.328 1.164 16.213
950 1 1 0.0 2.328 0.407 15.626
951 1 1 0.0 2.328 1.921 15.626
952 1 2 0.0 2.328 1.164 22.988
953 1 1 0.0 2.328 0.407 22.401
954 1 1 0.0 2.328 1.921 22.401
955 1 2 0.0 2.328 5.82 16.213
956 1 1 0.0 2.328 6.577 15.626
957 1 1 0.0 2.328 5.063 15.626
958 1 2 0.0 2.328 5.82 22.988
959 1 1 0.0 2.328 6.577 22.401
960 1 1 0.0 2.328 5.063 22.401
961 1 2 0.0 9.312 1.164 14.275
962 1 1 0.0 9.312 0.407 14.862
963 1 1 0.0 9.312 1.921 14.862
964 1 2 0.0 9.312 1.164 21.05
965 1 1 0.0 9.312 0.407 21.637
966 1 1 0.0 9.312 1.921 21.637
967 1 2 0.0 9.312 5.82 14.275
968 1 1 0.0 9.312 6.577 14.862
969 1 1 0.0 9.312 5.063 14.862
970 1 2 0.0 9.312 5.82 21.05
971 1 1 0.0 9.312 6.577 21.637
972 1 1 0.0 9.312 5.063 21.637
973 1 2 0.0 13.968 1.164 14.275
974 1 1 0.0 13.968 0.407 14.862
975 1 1 0.0 13.968 1.921 14.862
976 1 2 0.0 13.968 1.164 21.05
977 1 1 0.0 13.968 0.407 21.637
978 1 1 0.0 13.968 1.921 21.637