# LAMMPS data file written by OVITO Basic 3.5.4
675 atoms
450 bonds
2 atom types
1 bond types
0.051 19.959 xlo xhi
0.051 19.959 ylo yhi
-0.692 14.632 zlo zhi

Masses

1 1.00794  # H
2 15.9994  # O

Atoms  # full

1 1 2 0.0 6.016 0.654 5.228
2 1 1 0.0 5.818 1.285 5.92
3 1 1 0.0 5.385 0.852 4.535
4 1 2 0.0 0.654 6.016 1.743
5 1 1 0.0 0.852 5.385 2.435
6 1 1 0.0 1.285 5.818 1.05
7 1 2 0.0 3.989 3.989 3.485
8 1 1 0.0 4.62 4.187 4.177
9 1 1 0.0 4.187 4.62 2.793
10 1 2 0.0 2.681 2.681 0.0
11 1 1 0.0 2.05 2.483 0.692
12 1 1 0.0 2.483 2.05 -0.692
13 1 2 0.0 2.026 0.758 4.912
14 1 1 0.0 2.288 0.051 5.503
15 1 1 0.0 1.072 0.786 4.98
16 1 2 0.0 4.644 5.912 1.427
17 1 1 0.0 4.382 6.619 2.018
18 1 1 0.0 5.598 5.884 1.495
19 1 2 0.0 2.577 5.361 6.655
20 1 1 0.0 2.549 4.407 6.723
21 1 1 0.0 3.284 5.623 7.245
22 1 2 0.0 4.093 1.309 3.17
23 1 1 0.0 3.386 1.047 3.76
24 1 1 0.0 4.121 2.263 3.238
25 1 2 0.0 5.361 2.577 0.315
26 1 1 0.0 4.407 2.549 0.247
27 1 1 0.0 5.623 3.284 -0.275
28 1 2 0.0 1.309 4.093 3.8
29 1 1 0.0 1.047 3.386 3.21
30 1 1 0.0 2.263 4.121 3.732
31 1 2 0.0 5.912 4.644 5.543
32 1 1 0.0 6.619 4.382 4.952
33 1 1 0.0 5.884 5.598 5.475
34 1 2 0.0 0.758 2.026 2.058
35 1 1 0.0 0.051 2.288 1.467
36 1 1 0.0 0.786 1.072 1.99
37 1 2 0.0 12.686 0.654 5.228
38 1 1 0.0 12.488 1.285 5.92
39 1 1 0.0 12.055 0.852 4.535
40 1 2 0.0 7.324 6.016 1.743
41 1 1 0.0 7.522 5.385 2.435
42 1 1 0.0 7.955 5.818 1.05
43 1 2 0.0 10.659 3.989 3.485
44 1 1 0.0 11.29 4.187 4.177
45 1 1 0.0 10.857 4.62 2.793
46 1 2 0.0 9.351 2.681 0.0
47 1 1 0.0 8.72 2.483 0.692
48 1 1 0.0 9.153 2.05 -0.692
49 1 2 0.0 8.696 0.758 4.912
50 1 1 0.0 8.958 0.051 5.503
51 1 1 0.0 7.742 0.786 4.98
52 1 2 0.0 11.314 5.912 1.427
53 1 1 0.0 11.052 6.619 2.018
54 1 1 0.0 12.268 5.884 1.495
55 1 2 0.0 9.247 5.361 6.655
56 1 1 0.0 9.219 4.407 6.723
57 1 1 0.0 9.954 5.623 7.245
58 1 2 0.0 10.763 1.309 3.17
59 1 1 0.0 10.056 1.047 3.76
60 1 1 0.0 10.791 2.263 3.238
61 1 2 0.0 12.031 2.577 0.315
62 1 1 0.0 11.077 2.549 0.247
63 1 1 0.0 12.293 3.284 -0.275
64 1 2 0.0 7.979 4.093 3.8
65 1 1 0.0 7.717 3.386 3.21
66 1 1 0.0 8.933 4.121 3.732
67 1 2 0.0 12.582 4.644 5.543
68 1 1 0.0 13.289 4.382 4.952
69 1 1 0.0 12.554 5.598 5.475
70 1 2 0.0 7.428 2.026 2.058
71 1 1 0.0 6.721 2.288 1.467
72 1 1 0.0 7.456 1.072 1.99
73 1 2 0.0 19.356 0.654 5.228
74 1 1 0.0 19.158 1.285 5.92
75 1 1 0.0 18.725 0.852 4.535
76 1 2 0.0 13.994 6.016 1.743
77 1 1 0.0 14.192 5.385 2.435
78 1 1 0.0 14.625 5.818 1.05
79 1 2 0.0 17.329 3.989 3.485
80 1 1 0.0 17.96 4.187 4.177
81 1 1 0.0 17.527 4.62 2.793
82 1 2 0.0 16.021 2.681 0.0
83 1 1 0.0 15.39 2.483 0.692
84 1 1 0.0 15.823 2.05 -0.692
85 1 2 0.0 15.366 0.758 4.912
86 1 1 0.0 15.628 0.051 5.503
87 1 1 0.0 14.412 0.786 4.98
88 1 2 0.0 17.984 5.912 1.427
89 1 1 0.0 17.722 6.619 2.018
90 1 1 0.0 18.938 5.884 1.495
91 1 2 0.0 15.917 5.361 6.655
92 1 1 0.0 15.889 4.407 6.723
93 1 1 0.0 16.624 5.623 7.245
94 1 2 0.0 17.433 1.309 3.17
95 1 1 0.0 16.726 1.047 3.76
96 1 1 0.0 17.461 2.263 3.238
97 1 2 0.0 18.701 2.577 0.315
98 1 1 0.0 17.747 2.549 0.247
99 1 1 0.0 18.963 3.284 -0.275
100 1 2 0.0 14.649 4.093 3.8
101 1 1 0.0 14.387 3.386 3.21
102 1 1 0.0 15.603 4.121 3.732
103 1 2 0.0 19.252 4.644 5.543
104 1 1 0.0 19.959 4.382 4.952
105 1 1 0.0 19.224 5.598 5.475
106 1 2 0.0 14.098 2.026 2.058
107 1 1 0.0 13.391 2.288 1.467
108 1 1 0.0 14.126 1.072 1.99
109 1 2 0.0 6.016 7.324 5.228
110 1 1 0.0 5.818 7.955 5.92
111 1 1 0.0 5.385 7.522 4.535
112 1 2 0.0 0.654 12.686 1.743
113 1 1 0.0 0.852 12.055 2.435
114 1 1 0.0 1.285 12.488 1.05
115 1 2 0.0 3.989 10.659 3.485
116 1 1 0.0 4.62 10.857 4.177
117 1 1 0.0 4.187 11.29 2.793
118 1 2 0.0 2.681 9.351 0.0
119 1 1 0.0 2.05 9.153 0.692
120 1 1 0.0 2.483 8.72 -0.692
121 1 2 0.0 2.026 7.428 4.912
122 1 1 0.0 2.288 6.721 5.503
123 1 1 0.0 1.072 7.456 4.98
124 1 2 0.0 4.644 12.582 1.427
125 1 1 0.0 4.382 13.289 2.018
126 1 1 0.0 5.598 12.554 1.495
127 1 2 0.0 2.577 12.031 6.655
128 1 1 0.0 2.549 11.077 6.723
129 1 1 0.0 3.284 12.293 7.245
130 1 2 0.0 4.093 7.979 3.17
131 1 1 0.0 3.386 7.717 3.76
132 1 1 0.0 4.121 8.933 3.238
133 1 2 0.0 5.361 9.247 0.315
134 1 1 0.0 4.407 9.219 0.247
135 1 1 0.0 5.623 9.954 -0.275
136 1 2 0.0 1.309 10.763 3.8
137 1 1 0.0 1.047 10.056 3.21
138 1 1 0.0 2.263 10.791 3.732
139 1 2 0.0 5.912 11.314 5.543
140 1 1 0.0 6.619 11.052 4.952
141 1 1 0.0 5.884 12.268 5.475
142 1 2 0.0 0.758 8.696 2.058
143 1 1 0.0 0.051 8.958 1.467
144 1 1 0.0 0.786 7.742 1.99
145 1 2 0.0 12.686 7.324 5.228
146 1 1 0.0 12.488 7.955 5.92
147 1 1 0.0 12.055 7.522 4.535
148 1 2 0.0 7.324 12.686 1.743
149 1 1 0.0 7.522 12.055 2.435
150 1 1 0.0 7.955 12.488 1.05
151 1 2 0.0 10.659 10.659 3.485
152 1 1 0.0 11.29 10.857 4.177
153 1 1 0.0 10.857 11.29 2.793
154 1 2 0.0 9.351 9.351 0.0
155 1 1 0.0 8.72 9.153 0.692
156 1 1 0.0 9.153 8.72 -0.692
157 1 2 0.0 8.696 7.428 4.912
158 1 1 0.0 8.958 6.721 5.503
159 1 1 0.0 7.742 7.456 4.98
160 1 2 0.0 11.314 12.582 1.427
161 1 1 0.0 11.052 13.289 2.018
162 1 1 0.0 12.268 12.554 1.495
163 1 2 0.0 9.247 12.031 6.655
164 1 1 0.0 9.219 11.077 6.723
165 1 1 0.0 9.954 12.293 7.245
166 1 2 0.0 10.763 7.979 3.17
167 1 1 0.0 10.056 7.717 3.76
168 1 1 0.0 10.791 8.933 3.238
169 1 2 0.0 12.031 9.247 0.315
170 1 1 0.0 11.077 9.219 0.247
171 1 1 0.0 12.293 9.954 -0.275
172 1 2 0.0 7.979 10.763 3.8
173 1 1 0.0 7.717 10.056 3.21
174 1 1 0.0 8.933 10.791 3.732
175 1 2 0.0 12.582 11.314 5.543
176 1 1 0.0 13.289 11.052 4.952
177 1 1 0.0 12.554 12.268 5.475
178 1 2 0.0 7.428 8.696 2.058
179 1 1 0.0 6.721 8.958 1.467
180 1 1 0.0 7.456 7.742 1.99
181 1 2 0.0 19.356 7.324 5.228
182 1 1 0.0 19.158 7.955 5.92
183 1 1 0.0 18.725 7.522 4.535
184 1 2 0.0 13.994 12.686 1.743
185 1 1 0.0 14.192 12.055 2.435
186 1 1 0.0 14.625 12.488 1.05
187 1 2 0.0 17.329 10.659 3.485
188 1 1 0.0 17.96 10.857 4.177
189 1 1 0.0 17.527 11.29 2.793
190 1 2 0.0 16.021 9.351 0.0
191 1 1 0.0 15.39 9.153 0.692
192 1 1 0.0 15.823 8.72 -0.692
193 1 2 0.0 15.366 7.428 4.912
194 1 1 0.0 15.628 6.721 5.503
195 1 1 0.0 14.412 7.456 4.98
196 1 2 0.0 17.984 12.582 1.427
197 1 1 0.0 17.722 13.289 2.018
198 1 1 0.0 18.938 12.554 1.495
199 1 2 0.0 15.917 12.031 6.655
200 1 1 0.0 15.889 11.077 6.723
201 1 1 0.0 16.624 12.293 7.245
202 1 2 0.0 17.433 7.979 3.17
203 1 1 0.0 16.726 7.717 3.76
204 1 1 0.0 17.461 8.933 3.238
205 1 2 0.0 18.701 9.247 0.315
206 1 1 0.0 17.747 9.219 0.247
207 1 1 0.0 18.963 9.954 -0.275
208 1 2 0.0 14.649 10.763 3.8
209 1 1 0.0 14.387 10.056 3.21
210 1 1 0.0 15.603 10.791 3.732
211 1 2 0.0 19.252 11.314 5.543
212 1 1 0.0 19.959 11.052 4.952
213 1 1 0.0 19.224 12.268 5.475
214 1 2 0.0 14.098 8.696 2.058
215 1 1 0.0 13.391 8.958 1.467
216 1 1 0.0 14.126 7.742 1.99
217 1 2 0.0 6.016 13.994 5.228
218 1 1 0.0 5.818 14.625 5.92
219 1 1 0.0 5.385 14.192 4.535
220 1 2 0.0 0.654 19.356 1.743
221 1 1 0.0 0.852 18.725 2.435
222 1 1 0.0 1.285 19.158 1.05
223 1 2 0.0 3.989 17.329 3.485
224 1 1 0.0 4.62 17.527 4.177
225 1 1 0.0 4.187 17.96 2.793
226 1 2 0.0 2.681 16.021 0.0
227 1 1 0.0 2.05 15.823 0.692
228 1 1 0.0 2.483 15.39 -0.692
229 1 2 0.0 2.026 14.098 4.912
230 1 1 0.0 2.288 13.391 5.503
231 1 1 0.0 1.072 14.126 4.98
232 1 2 0.0 4.644 19.252 1.427
233 1 1 0.0 4.382 19.959 2.018
234 1 1 0.0 5.598 19.224 1.495
235 1 2 0.0 2.577 18.701 6.655
236 1 1 0.0 2.549 17.747 6.723
237 1 1 0.0 3.284 18.963 7.245
238 1 2 0.0 4.093 14.649 3.17
239 1 1 0.0 3.386 14.387 3.76
240 1 1 0.0 4.121 15.603 3.238
241 1 2 0.0 5.361 15.917 0.315
242 1 1 0.0 4.407 15.889 0.247
243 1 1 0.0 5.623 16.624 -0.275
244 1 2 0.0 1.309 17.433 3.8
245 1 1 0.0 1.047 16.726 3.21
246 1 1 0.0 2.263 17.461 3.732
247 1 2 0.0 5.912 17.984 5.543
248 1 1 0.0 6.619 17.722 4.952
249 1 1 0.0 5.884 18.938 5.475
250 1 2 0.0 0.758 15.366 2.058
251 1 1 0.0 0.051 15.628 1.467
252 1 1 0.0 0.786 14.412 1.99
253 1 2 0.0 12.686 13.994 5.228
254 1 1 0.0 12.488 14.625 5.92
255 1 1 0.0 12.055 14.192 4.535
256 1 2 0.0 7.324 19.356 1.743
257 1 1 0.0 7.522 18.725 2.435
258 1 1 0.0 7.955 19.158 1.05
259 1 2 0.0 10.659 17.329 3.485
260 1 1 0.0 11.29 17.527 4.177
261 1 1 0.0 10.857 17.96 2.793
262 1 2 0.0 9.351 16.021 0.0
263 1 1 0.0 8.72 15.823 0.692
264 1 1 0.0 9.153 15.39 -0.692
265 1 2 0.0 8.696 14.098 4.912
266 1 1 0.0 8.958 13.391 5.503
267 1 1 0.0 7.742 14.126 4.98
268 1 2 0.0 11.314 19.252 1.427
269 1 1 0.0 11.052 19.959 2.018
270 1 1 0.0 12.268 19.224 1.495
271 1 2 0.0 9.247 18.701 6.655
272 1 1 0.0 9.219 17.747 6.723
273 1 1 0.0 9.954 18.963 7.245
274 1 2 0.0 10.763 14.649 3.17
275 1 1 0.0 10.056 14.387 3.76
276 1 1 0.0 10.791 15.603 3.238
277 1 2 0.0 12.031 15.917 0.315
278 1 1 0.0 11.077 15.889 0.247
279 1 1 0.0 12.293 16.624 -0.275
280 1 2 0.0 7.979 17.433 3.8
281 1 1 0.0 7.717 16.726 3.21
282 1 1 0.0 8.933 17.461 3.732
283 1 2 0.0 12.582 17.984 5.543
284 1 1 0.0 13.289 17.722 4.952
285 1 1 0.0 12.554 18.938 5.475
286 1 2 0.0 7.428 15.366 2.058
287 1 1 0.0 6.721 15.628 1.467
288 1 1 0.0 7.456 14.412 1.99
289 1 2 0.0 19.356 13.994 5.228
290 1 1 0.0 19.158 14.625 5.92
291 1 1 0.0 18.725 14.192 4.535
292 1 2 0.0 13.994 19.356 1.743
293 1 1 0.0 14.192 18.725 2.435
294 1 1 0.0 14.625 19.158 1.05
295 1 2 0.0 17.329 17.329 3.485
296 1 1 0.0 17.96 17.527 4.177
297 1 1 0.0 17.527 17.96 2.793
298 1 2 0.0 16.021 16.021 0.0
299 1 1 0.0 15.39 15.823 0.692
300 1 1 0.0 15.823 15.39 -0.692
301 1 2 0.0 15.366 14.098 4.912
302 1 1 0.0 15.628 13.391 5.503
303 1 1 0.0 14.412 14.126 4.98
304 1 2 0.0 17.984 19.252 1.427
305 1 1 0.0 17.722 19.959 2.018
306 1 1 0.0 18.938 19.224 1.495
307 1 2 0.0 15.917 18.701 6.655
308 1 1 0.0 15.889 17.747 6.723
309 1 1 0.0 16.624 18.963 7.245
310 1 2 0.0 17.433 14.649 3.17
311 1 1 0.0 16.726 14.387 3.76
312 1 1 0.0 17.461 15.603 3.238
313 1 2 0.0 18.701 15.917 0.315
314 1 1 0.0 17.747 15.889 0.247
315 1 1 0.0 18.963 16.624 -0.275
316 1 2 0.0 14.649 17.433 3.8
317 1 1 0.0 14.387 16.726 3.21
318 1 1 0.0 15.603 17.461 3.732
319 1 2 0.0 19.252 17.984 5.543
320 1 1 0.0 19.959 17.722 4.952
321 1 1 0.0 19.224 18.938 5.475
322 1 2 0.0 14.098 15.366 2.058
323 1 1 0.0 13.391 15.628 1.467
324 1 1 0.0 14.126 14.412 1.99
325 1 2 0.0 6.016 0.654 12.198
326 1 1 0.0 5.818 1.285 12.89
327 1 1 0.0 5.385 0.852 11.505
328 1 2 0.0 0.654 6.016 8.713
329 1 1 0.0 0.852 5.385 9.405
330 1 1 0.0 1.285 5.818 8.02
331 1 2 0.0 3.989 3.989 10.455
332 1 1 0.0 4.62 4.187 11.147
333 1 1 0.0 4.187 4.62 9.763
334 1 2 0.0 2.681 2.681 6.97
335 1 1 0.0 2.05 2.483 7.662
336 1 1 0.0 2.483 2.05 6.278
337 1 2 0.0 2.026 0.758 11.882
338 1 1 0.0 2.288 0.051 12.473
339 1 1 0.0 1.072 0.786 11.95
340 1 2 0.0 4.644 5.912 8.397
341 1 1 0.0 4.382 6.619 8.988
342 1 1 0.0 5.598 5.884 8.465
343 1 2 0.0 2.577 5.361 13.625
344 1 1 0.0 2.549 4.407 13.693
345 1 1 0.0 3.284 5.623 14.215
346 1 2 0.0 4.093 1.309 10.14
347 1 1 0.0 3.386 1.047 10.73
348 1 1 0.0 4.121 2.263 10.208
349 1 2 0.0 5.361 2.577 7.285
350 1 1 0.0 4.407 2.549 7.217
351 1 1 0.0 5.623 3.284 6.695
352 1 2 0.0 1.309 4.093 10.77
353 1 1 0.0 1.047 3.386 10.18
354 1 1 0.0 2.263 4.121 10.702
355 1 2 0.0 5.912 4.644 12.513
356 1 1 0.0 6.619 4.382 11.922
357 1 1 0.0 5.884 5.598 12.445
358 1 2 0.0 0.758 2.026 9.028
359 1 1 0.0 0.051 2.288 8.437
360 1 1 0.0 0.786 1.072 8.96
361 1 2 0.0 12.686 0.654 12.198
362 1 1 0.0 12.488 1.285 12.89
363 1 1 0.0 12.055 0.852 11.505
364 1 2 0.0 7.324 6.016 8.713
365 1 1 0.0 7.522 5.385 9.405
366 1 1 0.0 7.955 5.818 8.02
367 1 2 0.0 10.659 3.989 10.455
368 1 1 0.0 11.29 4.187 11.147
369 1 1 0.0 10.857 4.62 9.763
370 1 2 0.0 9.351 2.681 6.97
371 1 1 0.0 8.72 2.483 7.662
372 1 1 0.0 9.153 2.05 6.278
373 1 2 0.0 8.696 0.758 11.882
374 1 1 0.0 8.958 0.051 12.473
375 1 1 0.0 7.742 0.786 11.95
376 1 2 0.0 11.314 5.912 8.397
377 1 1 0.0 11.052 6.619 8.988
378 1 1 0.0 12.268 5.884 8.465
379 1 2 0.0 9.247 5.361 13.625
380 1 1 0.0 9.219 4.407 13.693
381 1 1 0.0 9.954 5.623 14.215
382 1 2 0.0 10.763 1.309 10.14
383 1 1 0.0 10.056 1.047 10.73
384 1 1 0.0 10.791 2.263 10.208
385 1 2 0.0 12.031 2.577 7.285
386 1 1 0.0 11.077 2.549 7.217
387 1 1 0.0 12.293 3.284 6.695
388 1 2 0.0 7.979 4.093 10.77
389 1 1 0.0 7.717 3.386 10.18
390 1 1 0.0 8.933 4.121 10.702
391 1 2 0.0 12.582 4.644 12.513
392 1 1 0.0 13.289 4.382 11.922
393 1 1 0.0 12.554 5.598 12.445
394 1 2 0.0 7.428 2.026 9.028
395 1 1 0.0 6.721 2.288 8.437
396 1 1 0.0 7.456 1.072 8.96
397 1 2 0.0 19.356 0.654 12.198
398 1 1 0.0 19.158 1.285 12.89
399 1 1 0.0 18.725 0.852 11.505
400 1 2 0.0 13.994 6.016 8.713
401 1 1 0.0 14.192 5.385 9.405
402 1 1 0.0 14.625 5.818 8.02
403 1 2 0.0 17.329 3.989 10.455
404 1 1 0.0 17.96 4.187 11.147
405 1 1 0.0 17.527 4.62 9.763
406 1 2 0.0 16.021 2.681 6.97
407 1 1 0.0 15.39 2.483 7.662
408 1 1 0.0 15.823 2.05 6.278
409 1 2 0.0 15.366 0.758 11.882
410 1 1 0.0 15.628 0.051 12.473
411 1 1 0.0 14.412 0.786 11.95
412 1 2 0.0 17.984 5.912 8.397
413 1 1 0.0 17.722 6.619 8.988
414 1 1 0.0 18.938 5.884 8.465
415 1 2 0.0 15.917 5.361 13.625
416 1 1 0.0 15.889 4.407 13.693
417 1 1 0.0 16.624 5.623 14.215
418 1 2 0.0 17.433 1.309 10.14
419 1 1 0.0 16.726 1.047 10.73
420 1 1 0.0 17.461 2.263 10.208
421 1 2 0.0 18.701 2.577 7.285
422 1 1 0.0 17.747 2.549 7.217
423 1 1 0.0 18.963 3.284 6.695
424 1 2 0.0 14.649 4.093 10.77
425 1 1 0.0 14.387 3.386 10.18
426 1 1 0.0 15.603 4.121 10.702
427 1 2 0.0 19.252 4.644 12.513
428 1 1 0.0 19.959 4.382 11.922
429 1 1 0.0 19.224 5.598 12.445
430 1 2 0.0 14.098 2.026 9.028
431 1 1 0.0 13.391 2.288 8.437
432 1 1 0.0 14.126 1.072 8.96
433 1 2 0.0 6.016 7.324 12.198
434 1 1 0.0 5.818 7.955 12.89
435 1 1 0.0 5.385 7.522 11.505
436 1 2 0.0 0.654 12.686 8.713
437 1 1 0.0 0.852 12.055 9.405
438 1 1 0.0 1.285 12.488 8.02
439 1 2 0.0 3.989 10.659 10.455
440 1 1 0.0 4.62 10.857 11.147
441 1 1 0.0 4.187 11.29 9.763
442 1 2 0.0 2.681 9.351 6.97
443 1 1 0.0 2.05 9.153 7.662
444 1 1 0.0 2.483 8.72 6.278
445 1 2 0.0 2.026 7.428 11.882
446 1 1 0.0 2.288 6.721 12.473
447 1 1 0.0 1.072 7.456 11.95
448 1 2 0.0 4.644 12.582 8.397
449 1 1 0.0 4.382 13.289 8.988
450 1 1 0.0 5.598 12.554 8.465
451 1 2 0.0 2.577 12.031 13.625
452 1 1 0.0 2.549 11.077 13.693
453 1 1 0.0 3.284 12.293 14.215
454 1 2 0.0 4.093 7.979 10.14
455 1 1 0.0 3.386 7.717 10.73
456 1 1 0.0 4.121 8.933 10.208
457 1 2 0.0 5.361 9.247 7.285
458 1 1 0.0 4.407 9.219 7.217
459 1 1 0.0 5.623 9.954 6.695
460 1 2 0.0 1.309 10.763 10.77
461 1 1 0.0 1.047 10.056 10.18
462 1 1 0.0 2.263 10.791 10.702
463 1 2 0.0 5.912 11.314 12.513
464 1 1 0.0 6.619 11.052 11.922
465 1 1 0.0 5.884 12.268 12.445
466 1 2 0.0 0.758 8.696 9.028
467 1 1 0.0 0.051 8.958 8.437
468 1 1 0.0 0.786 7.742 8.96
469 1 2 0.0 12.686 7.324 12.198
470 1 1 0.0 12.488 7.955 12.89
471 1 1 0.0 12.055 7.522 11.505
472 1 2 0.0 7.324 12.686 8.713
473 1 1 0.0 7.522 12.055 9.405
474 1 1 0.0 7.955 12.488 8.02
475 1 2 0.0 10.659 10.659 10.455
476 1 1 0.0 11.29 10.857 11.147
477 1 1 0.0 10.857 11.29 9.763
478 1 2 0.0 9.351 9.351 6.97
479 1 1 0.0 8.72 9.153 7.662
480 1 1 0.0 9.153 8.72 6.278
481 1 2 0.0 8.696 7.428 11.882
482 1 1 0.0 8.958 6.721 12.473
483 1 1 0.0 7.742 7.456 11.95
484 1 2 0.0 11.314 12.582 8.397
485 1 1 0.0 11.052 13.289 8.988
486 1 1 0.0 12.268 12.554 8.465
487 1 2 0.0 9.247 12.031 13.625
488 1 1 0.0 9.219 11.077 13.693
489 1 1 0.0 9.954 12.293 14.215
490 1 2 0.0 10.763 7.979 10.14
491 1 1 0.0 10.056 7.717 10.73
492 1 1 0.0 10.791 8.933 10.208
493 1 2 0.0 12.031 9.247 7.285
494 1 1 0.0 11.077 9.219 7.217
495 1 1 0.0 12.293 9.954 6.695
496 1 2 0.0 7.979 10.763 10.77
497 1 1 0.0 7.717 10.056 10.18
498 1 1 0.0 8.933 10.791 10.702
499 1 2 0.0 12.582 11.314 12.513
500 1 1 0.0 13.289 11.052 11.922
501 1 1 0.0 12.554 12.268 12.445
502 1 2 0.0 7.428 8.696 9.028
503 1 1 0.0 6.721 8.958 8.437
504 1 1 0.0 7.456 7.742 8.96
505 1 2 0.0 19.356 7.324 12.198
506 1 1 0.0 19.158 7.955 12.89
507 1 1 0.0 18.725 7.522 11.505
508 1 2 0.0 13.994 12.686 8.713
509 1 1 0.0 14.192 12.055 9.405
510 1 1 0.0 14.625 12.488 8.02
511 1 2 0.0 17.329 10.659 10.455
512 1 1 0.0 17.96 10.857 11.147
513 1 1 0.0 17.527 11.29 9.763
514 1 2 0.0 16.021 9.351 6.97
515 1 1 0.0 15.39 9.153 7.662
516 1 1 0.0 15.823 8.72 6.278
517 1 2 0.0 15.366 7.428 11.882
518 1 1 0.0 15.628 6.721 12.473
519 1 1 0.0 14.412 7.456 11.95
520 1 2 0.0 17.984 12.582 8.397
521 1 1 0.0 17.722 13.289 8.988
522 1 1 0.0 18.938 12.554 8.465
523 1 2 0.0 15.917 12.031 13.625
524 1 1 0.0 15.889 11.077 13.693
525 1 1 0.0 16.624 12.293 14.215
526 1 2 0.0 17.433 7.979 10.14
527 1 1 0.0 16.726 7.717 10.73
528 1 1 0.0 17.461 8.933 10.208
529 1 2 0.0 18.701 9.247 7.285
530 1 1 0.0 17.747 9.219 7.217
531 1 1 0.0 18.963 9.954 6.695
532 1 2 0.0 14.649 10.763 10.77
533 1 1 0.0 14.387 10.056 10.18
534 1 1 0.0 15.603 10.791 10.702
535 1 2 0.0 19.252 11.314 12.513
536 1 1 0.0 19.959 11.052 11.922
537 1 1 0.0 19.224 12.268 12.445
538 1 2 0.0 14.098 8.696 9.028
539 1 1 0.0 13.391 8.958 8.437
540 1 1 0.0 14.126 7.742 8.96
541 1 2 0.0 6.016 13.994 12.198
542 1 1 0.0 5.818 14.625 12.89
543 1 1 0.0 5.385 14.192 11.505
544 1 2 0.0 0.654 19.356 8.713
545 1 1 0.0 0.852 18.725 9.405
546 1 1 0.0 1.285 19.158 8.02
547 1 2 0.0 3.989 17.329 10.455
548 1 1 0.0 4.62 17.527 11.147
549 1 1 0.0 4.187 17.96 9.763
550 1 2 0.0 2.681 16.021 6.97
551 1 1 0.0 2.05 15.823 7.662
552 1 1 0.0 2.483 15.39 6.278
553 1 2 0.0 2.026 14.098 11.882
554 1 1 0.0 2.288 13.391 12.473
555 1 1 0.0 1.072 14.126 11.95
556 1 2 0.0 4.644 19.252 8.397
557 1 1 0.0 4.382 19.959 8.988
558 1 1 0.0 5.598 19.224 8.465
559 1 2 0.0 2.577 18.701 13.625
560 1 1 0.0 2.549 17.747 13.693
561 1 1 0.0 3.284 18.963 14.215
562 1 2 0.0 4.093 14.649 10.14
563 1 1 0.0 3.386 14.387 10.73
564 1 1 0.0 4.121 15.603 10.208
565 1 2 0.0 5.361 15.917 7.285
566 1 1 0.0 4.407 15.889 7.217
567 1 1 0.0 5.623 16.624 6.695
568 1 2 0.0 1.309 17.433 10.77
569 1 1 0.0 1.047 16.726 10.18
570 1 1 0.0 2.263 17.461 10.702
571 1 2 0.0 5.912 17.984 12.513
572 1 1 0.0 6.619 17.722 11.922
573 1 1 0.0 5.884 18.938 12.445
574 1 2 0.0 0.758 15.366 9.028
575 1 1 0.0 0.051 15.628 8.437
576 1 1 0.0 0.786 14.412 8.96
577 1 2 0.0 12.686 13.994 12.198
578 1 1 0.0 12.488 14.625 12.89
579 1 1 0.0 12.055 14.192 11.505
580 1 2 0.0 7.324 19.356 8.713
581 1 1 0.0 7.522 18.725 9.405
582 1 1 0.0 7.955 19.158 8.02
583 1 2 0.0 10.659 17.329 10.455
584 1 1 0.0 11.29 17.527 11.147
585 1 1 0.0 10.857 17.96 9.763
586 1 2 0.0 9.351 16.021 6.97
587 1 1 0.0 8.72 15.823 7.662
588 1 1 0.0 9.153 15.39 6.278
589 1 2 0.0 8.696 14.098 11.882
590 1 1 0.0 8.958 13.391 12.473
591 1 1 0.0 7.742 14.126 11.95
592 1 2 0.0 11.314 19.252 8.397
593 1 1 0.0 11.052 19.959 8.988
594 1 1 0.0 12.268 19.224 8.465
595 1 2 0.0 9.247 18.701 13.625
596 1 1 0.0 9.219 17.747 13.693
597 1 1 0.0 9.954 18.963 14.215
598 1 2 0.0 10.763 14.649 10.14
599 1 1 0.0 10.056 14.387 10.73
600 1 1 0.0 10.791 15.603 10.208
601 1 2 0.0 12.031 15.917 7.285
602 1 1 0.0 11.077 15.889 7.217
603 1 1 0.0 12.293 16.624 6.695
604 1 2 0.0 7.979 17.433 10.77
605 1 1 0.0 7.717 16.726 10.18
606 1 1 0.0 8.933 17.461 10.702
607 1 2 0.0 12.582 17.984 12.513
608 1 1 0.0 13.289 17.722 11.922
609 1 1 0.0 12.554 18.938 12.445
610 1 2 0.0 7.428 15.366 9.028
611 1 1 0.0 6.721 15.628 8.437
612 1 1 0.0 7.456 14.412 8.96
613 1 2 0.0 19.356 13.994 12.198
614 1 1 0.0 19.158 14.625 12.89
615 1 1 0.0 18.725 14.192 11.505
616 1 2 0.0 13.994 19.356 8.713
617 1 1 0.0 14.192 18.725 9.405
618 1 1 0.0 14.625 19.158 8.02
619 1 2 0.0 17.329 17.329 10.455
620 1 1 0.0 17.96 17.527 11.147
621 1 1 0.0 17.527 17.96 9.763
622 1 2 0.0 16.021 16.021 6.97
623 1 1 0.0 15.39 15.823 7.662
624 1 1 0.0 15.823 15.39 6.278
625 1 2 0.0 15.366 14.098 11.882
626 1 1 0.0 15.628 13.391 12.473
627 1 1 0.0 14.412 14.126 11.95
628 1 2 0.0 17.984 19.252 8.397
629 1 1 0.0 17.722 19.959 8.988
630 1 1 0.0 18.938 19.224 8.465
631 1 2 0.0 15.917 18.701 13.625
632 1 1 0.0 15.889 17.747 13.693
633 1 1 0.0 16.624 18.963 14.215
634 1 2 0.0 17.433 14.649 10.14
635 1 1 0.0 16.726 14.387 10.73
636 1 1 0.0 17.461 15.603 10.208
637 1 2 0.0 18.701 15.917 7.285
638 1 1 0.0 17.747 15.889 7.217
639 1 1 0.0 18.963 16.624 6.695
640 1 2 0.0 14.649 17.433 10.77
641 1 1 0.0 14.387 16.726 10.18
642 1 1 0.0 15.603 17.461 10.702
643 1 2 0.0 19.252 17.984 12.513
644 1 1 0.0 19.959 17.722 11.922
645 1 1 0.0 19.224 18.938 12.445
646 1 2 0.0 14.098 15.366 9.028
647 1 1 0.0 13.391 15.628 8.437
648 1 1 0.0 14.126 14.412 8.96
649 1 2 0.0 2.681 2.681 13.94
650 1 1 0.0 2.05 2.483 14.632
651 1 1 0.0 2.483 2.05 13.248
652 1 2 0.0 9.351 2.681 13.94
653 1 1 0.0 8.72 2.483 14.632
654 1 1 0.0 9.153 2.05 13.248
655 1 2 0.0 16.021 2.681 13.94
656 1 1 0.0 15.39 2.483 14.632
657 1 1 0.0 15.823 2.05 13.248
658 1 2 0.0 2.681 9.351 13.94
659 1 1 0.0 2.05 9.153 14.632
660 1 1 0.0 2.483 8.72 13.248
661 1 2 0.0 9.351 9.351 13.94
662 1 1 0.0 8.72 9.153 14.632
663 1 1 0.0 9.153 8.72 13.248
664 1 2 0.0 16.021 9.351 13.94
665 1 1 0.0 15.39 9.153 14.632
666 1 1 0.0 15.823 8.72 13.248
667 1 2 0.0 2.681 16.021 13.94
668 1 1 0.0 2.05 15.823 14.632
669 1 1 0.0 2.483 15.39 13.248
670 1 2 0.0 9.351 16.021 13.94
671 1 1 0.0 8.72 15.823 14.632
672 1 1 0.0 9.153 15.39 13.248
673 1 2 0.0 16.021 16.021 13.94
674 1 1 0.0 15.39 15.823 14.632
675 1 1 0.0 15.823 15.39 13.248

Bonds

1 1 1 2
2 1 1 3
3 1 4 5
4 1 4 6
5 1 7 9
6 1 7 8
7 1 10 12
8 1 10 11
9 1 13 15
10 1 13 14
11 1 16 18
12 1 16 17
13 1 19 20
14 1 19 21
15 1 22 23
16 1 22 24
17 1 25 27
18 1 25 26
19 1 28 29
20 1 28 30
21 1 31 33
22 1 31 32
23 1 34 36
24 1 34 35
25 1 37 38
26 1 37 39
27 1 40 41
28 1 40 42
29 1 43 45
30 1 43 44
31 1 46 48
32 1 46 47
33 1 49 51
34 1 49 50
35 1 52 53
36 1 52 54
37 1 55 56
38 1 55 57
39 1 58 59
40 1 58 60
41 1 61 63
42 1 61 62
43 1 64 65
44 1 64 66
45 1 67 69
46 1 67 68
47 1 70 72
48 1 70 71
49 1 73 74
50 1 73 75
51 1 76 77
52 1 76 78
53 1 79 81
54 1 79 80
55 1 82 84
56 1 82 83
57 1 85 87
58 1 85 86
59 1 88 90
60 1 88 89
61 1 91 92
62 1 91 93
63 1 94 95
64 1 94 96
65 1 97 99
66 1 97 98
67 1 100 102
68 1 100 101
69 1 103 105
70 1 103 104
71 1 106 108
72 1 106 107
73 1 109 110
74 1 109 111
75 1 112 113
76 1 112 114
77 1 115 117
78 1 115 116
79 1 118 120
80 1 118 119
81 1 121 123
82 1 121 122
83 1 124 126
84 1 124 125
85 1 127 128
86 1 127 129
87 1 130 131
88 1 130 132
89 1 133 135
90 1 133 134
91 1 136 137
92 1 136 138
93 1 139 141
94 1 139 140
95 1 142 143
96 1 142 144
97 1 145 146
98 1 145 147
99 1 148 149
100 1 148 150
101 1 151 152
102 1 151 153
103 1 154 156
104 1 154 155
105 1 157 159
106 1 157 158
107 1 160 161
108 1 160 162
109 1 163 164
110 1 163 165
111 1 166 167
112 1 166 168
113 1 169 171
114 1 169 170
115 1 172 173
116 1 172 174
117 1 175 176
118 1 175 177
119 1 178 179
120 1 178 180
121 1 181 182
122 1 181 183
123 1 184 185
124 1 184 186
125 1 187 188
126 1 187 189
127 1 190 192
128 1 190 191
129 1 193 195
130 1 193 194
131 1 196 198
132 1 196 197
133 1 199 200
134 1 199 201
135 1 202 203
136 1 202 204
137 1 205 207
138 1 205 206
139 1 208 210
140 1 208 209
141 1 211 212
142 1 211 213
143 1 214 215
144 1 214 216
145 1 217 218
146 1 217 219
147 1 220 221
148 1 220 222
149 1 223 225
150 1 223 224
151 1 226 228
152 1 226 227
153 1 229 231
154 1 229 230
155 1 232 234
156 1 232 233
157 1 235 236
158 1 235 237
159 1 238 240
160 1 238 239
161 1 241 242
162 1 241 243
163 1 244 245
164 1 244 246
165 1 247 249
166 1 247 248
167 1 250 252
168 1 250 251
169 1 253 254
170 1 253 255
171 1 256 257
172 1 256 258
173 1 259 260
174 1 259 261
175 1 262 264
176 1 262 263
177 1 265 267
178 1 265 266
179 1 268 269
180 1 268 270
181 1 271 272
182 1 271 273
183 1 274 276
184 1 274 275
185 1 277 278
186 1 277 279
187 1 280 281
188 1 280 282
189 1 283 285
190 1 283 284
191 1 286 288
192 1 286 287
193 1 289 290
194 1 289 291
195 1 292 293
196 1 292 294
197 1 295 296
198 1 295 297
199 1 298 300
200 1 298 299
201 1 301 303
202 1 301 302
203 1 304 306
204 1 304 305
205 1 307 308
206 1 307 309
207 1 310 312
208 1 310 311
209 1 313 314
210 1 313 315
211 1 316 318
212 1 316 317
213 1 319 321
214 1 319 320
215 1 322 324
216 1 322 323
217 1 325 327
218 1 325 326
219 1 328 330
220 1 328 329
221 1 331 333
222 1 331 332
223 1 334 335
224 1 334 336
225 1 337 339
226 1 337 338
227 1 340 342
228 1 340 341
229 1 343 345
230 1 343 344
231 1 346 347
232 1 346 348
233 1 349 350
234 1 349 351
235 1 352 353
236 1 352 354
237 1 355 357
238 1 355 356
239 1 358 360
240 1 358 359
241 1 361 363
242 1 361 362
243 1 364 366
244 1 364 365
245 1 367 369
246 1 367 368
247 1 370 371
248 1 370 372
249 1 373 374
250 1 373 375
251 1 376 377
252 1 376 378
253 1 379 381
254 1 379 380
255 1 382 383
256 1 382 384
257 1 385 386
258 1 385 387
259 1 388 389
260 1 388 390
261 1 391 393
262 1 391 392
263 1 394 396
264 1 394 395
265 1 397 399
266 1 397 398
267 1 400 402
268 1 400 401
269 1 403 405
270 1 403 404
271 1 406 408
272 1 406 407
273 1 409 411
274 1 409 410
275 1 412 414
276 1 412 413
277 1 415 416
278 1 415 417
279 1 418 419
280 1 418 420
281 1 421 422
282 1 421 423
283 1 424 426
284 1 424 425
285 1 427 429
286 1 427 428
287 1 430 432
288 1 430 431
289 1 433 435
290 1 433 434
291 1 436 438
292 1 436 437
293 1 439 441
294 1 439 440
295 1 442 443
296 1 442 444
297 1 445 447
298 1 445 446
299 1 448 450
300 1 448 449
301 1 451 453
302 1 451 452
303 1 454 455
304 1 454 456
305 1 457 458
306 1 457 459
307 1 460 461
308 1 460 462
309 1 463 465
310 1 463 464
311 1 466 468
312 1 466 467
313 1 469 471
314 1 469 470
315 1 472 474
316 1 472 473
317 1 475 477
318 1 475 476
319 1 478 479
320 1 478 480
321 1 481 482
322 1 481 483
323 1 484 485
324 1 484 486
325 1 487 489
326 1 487 488
327 1 490 491
328 1 490 492
329 1 493 494
330 1 493 495
331 1 496 497
332 1 496 498
333 1 499 500
334 1 499 501
335 1 502 504
336 1 502 503
337 1 505 507
338 1 505 506
339 1 508 510
340 1 508 509
341 1 511 513
342 1 511 512
343 1 514 516
344 1 514 515
345 1 517 519
346 1 517 518
347 1 520 522
348 1 520 521
349 1 523 524
350 1 523 525
351 1 526 527
352 1 526 528
353 1 529 530
354 1 529 531
355 1 532 534
356 1 532 533
357 1 535 536
358 1 535 537
359 1 538 539
360 1 538 540
361 1 541 543
362 1 541 542
363 1 544 546
364 1 544 545
365 1 547 549
366 1 547 548
367 1 550 552
368 1 550 551
369 1 553 555
370 1 553 554
371 1 556 558
372 1 556 557
373 1 559 561
374 1 559 560
375 1 562 564
376 1 562 563
377 1 565 566
378 1 565 567
379 1 568 569
380 1 568 570
381 1 571 573
382 1 571 572
383 1 574 576
384 1 574 575
385 1 577 579
386 1 577 578
387 1 580 582
388 1 580 581
389 1 583 585
390 1 583 584
391 1 586 588
392 1 586 587
393 1 589 591
394 1 589 590
395 1 592 593
396 1 592 594
397 1 595 597
398 1 595 596
399 1 598 600
400 1 598 599
401 1 601 602
402 1 601 603
403 1 604 605
404 1 604 606
405 1 607 609
406 1 607 608
407 1 610 612
408 1 610 611
409 1 613 615
410 1 613 614
411 1 616 618
412 1 616 617
413 1 619 621
414 1 619 620
415 1 622 624
416 1 622 623
417 1 625 627
418 1 625 626
419 1 628 630
420 1 628 629
421 1 631 632
422 1 631 633
423 1 634 636
424 1 634 635
425 1 637 638
426 1 637 639
427 1 640 642
428 1 640 641
429 1 643 645
430 1 643 644
431 1 646 648
432 1 646 647
433 1 649 651
434 1 649 650
435 1 652 654
436 1 652 653
437 1 655 657
438 1 655 656
439 1 658 660
440 1 658 659
441 1 661 663
442 1 661 662
443 1 664 666
444 1 664 665
445 1 667 669
446 1 667 668
447 1 670 672
448 1 670 671
449 1 673 675
450 1 673 674
